# vtk DataFile Version 2.0
Comment goes here
ASCII
DATASET UNSTRUCTURED_GRID
POINTS 6531 float
38.535980 96.065933 -585.296326 
38.977337 94.263916 -585.950195 
39.213978 93.292961 -586.301086 
39.484589 92.167595 -586.703308 
39.774666 90.935577 -587.136047 
40.069698 89.644638 -587.578674 
40.355190 88.342522 -588.010376 
40.616634 87.076981 -588.410339 
40.848839 85.842972 -588.772705 
41.090511 84.303391 -589.165588 
41.246365 82.985535 -589.437195 
41.343349 81.832016 -589.621643 
41.408409 80.785477 -589.753235 
41.472195 79.732529 -589.872742 
41.569489 78.496742 -590.021057 
41.696888 77.262878 -590.175598 
41.858665 76.025909 -590.331177 
42.057045 74.792236 -590.481384 
42.290386 73.573746 -590.618286 
42.560055 72.356224 -590.735535 
42.863846 71.148521 -590.823547 
43.199699 69.959106 -590.872864 
43.568718 68.790466 -590.874573 
43.976555 67.636696 -590.820557 
44.429443 66.490486 -590.702698 
44.924152 65.364868 -590.517212 
45.447620 64.279312 -590.271362 
46.006435 63.204163 -589.967651 
46.589802 62.150303 -589.614502 
47.189651 61.124077 -589.218567 
47.816254 60.105709 -588.775879 
48.452389 59.127514 -588.310852 
49.102474 58.185177 -587.835632 
49.772484 57.272358 -587.361389 
50.490974 56.353226 -586.880249 
51.230595 55.458076 -586.406982 
51.988216 54.581421 -585.934937 
52.760391 53.718143 -585.457764 
53.541924 52.865536 -584.970947 
54.329712 52.020084 -584.470764 
55.118626 51.180794 -583.954773 
55.904270 50.345928 -583.420288 
56.686703 49.514042 -582.868713 
57.469540 48.690128 -582.313904 
58.259556 47.877052 -581.769531 
59.070190 47.071098 -581.244751 
59.912399 46.267639 -580.743042 
60.772469 45.478619 -580.268555 
61.649273 44.702591 -579.815735 
62.538925 43.940834 -579.380371 
63.443150 43.197628 -578.953247 
64.368385 42.480804 -578.521545 
65.318642 41.800606 -578.073364 
66.282288 41.175388 -577.605225 
67.264336 40.595818 -577.112976 
68.265083 40.048603 -576.598022 
69.278519 39.524666 -576.065002 
70.347328 38.992123 -575.492859 
71.411240 38.480152 -574.919861 
72.424782 38.013218 -574.379639 
73.396187 37.592205 -573.878418 
74.570259 37.145901 -573.345825 
75.647034 36.847942 -573.059265 
76.855576 36.672985 -573.094543 
78.120239 36.595642 -573.352844 
79.262619 36.501163 -573.389404 
80.354645 36.298996 -572.867554 
81.346901 36.140278 -572.448669 
82.632797 35.916363 -571.990356 
83.740349 35.676785 -571.589478 
84.751472 35.424080 -571.173523 
85.879265 35.115818 -570.613709 
87.131325 34.750580 -569.853882 
88.245613 34.410923 -569.052429 
89.283150 34.086353 -568.224182 
90.302956 33.761997 -567.357300 
91.252083 33.456585 -566.515503 
92.077568 33.188847 -565.762451 
93.093239 32.857994 -564.821716 
93.677757 32.667522 -564.279724 
39.388248 95.981705 -584.416504 
39.842533 94.178505 -585.062012 
40.086041 93.206955 -585.408508 
40.364296 92.081062 -585.805847 
40.662216 90.848717 -586.233704 
40.964718 89.557808 -586.671753 
41.256718 88.256218 -587.099670 
41.523129 86.991852 -587.497131 
41.758247 85.759941 -587.858459 
41.999535 84.225067 -588.253296 
42.151009 82.913910 -588.529480 
42.241344 81.769012 -588.719666 
42.299225 80.732925 -588.856689 
42.356777 79.692940 -588.979675 
42.449951 78.475128 -589.127991 
42.576138 77.262566 -589.278503 
42.738709 76.050758 -589.426758 
42.938961 74.846359 -589.567017 
43.173649 73.661636 -589.692871 
43.441589 72.484123 -589.799683 
43.737915 71.323975 -589.880005 
44.057919 70.190941 -589.926331 
44.401772 69.086563 -589.930969 
44.776871 68.000504 -589.885925 
45.191422 66.920715 -589.783081 
45.644913 65.854561 -589.618103 
46.127121 64.818565 -589.396729 
46.645084 63.785858 -589.119995 
47.189880 62.768139 -588.794373 
47.755161 61.772690 -588.424500 
48.351894 60.781399 -588.005249 
48.964024 59.827232 -587.559204 
49.595627 58.907757 -587.098022 
50.252308 58.018558 -586.632141 
50.961887 57.125969 -586.153564 
51.696327 56.258175 -585.678162 
52.451057 55.407909 -585.201599 
53.221172 54.568268 -584.719604 
54.000248 53.735016 -584.229492 
54.784492 52.903896 -583.728394 
55.568169 52.073219 -583.214966 
56.346272 51.240566 -582.687317 
57.119125 50.404919 -582.146484 
57.892433 49.574039 -581.603516 
58.675266 48.753860 -581.068726 
59.483318 47.943707 -580.548218 
60.327583 47.141323 -580.044312 
61.190544 46.359730 -579.564026 
62.066849 45.598328 -579.105164 
62.948574 44.859032 -578.666565 
63.836273 44.144165 -578.240845 
64.737717 43.457333 -577.815308 
65.658348 42.804371 -577.378540 
66.588638 42.199326 -576.926819 
67.535927 41.632362 -576.454468 
68.503395 41.091282 -575.960754 
69.488113 40.567940 -575.447937 
70.534439 40.031326 -574.893494 
71.581467 39.513321 -574.335022 
72.579704 39.042244 -573.806946 
73.532036 38.623112 -573.317322 
74.670403 38.204239 -572.795044 
75.707191 37.997337 -572.492004 
76.876732 38.038685 -572.452209 
78.108795 38.258083 -572.593994 
79.220848 38.368767 -572.554810 
80.302536 38.160198 -572.045898 
81.321693 37.981571 -571.627136 
82.662643 37.750328 -571.148071 
83.825661 37.504772 -570.722900 
84.886925 37.239162 -570.287781 
86.063377 36.901905 -569.717896 
87.356491 36.483261 -568.965149 
88.494583 36.076813 -568.187500 
89.545738 35.677437 -567.393005 
90.573418 35.271423 -566.566772 
91.526222 34.884621 -565.767761 
92.352722 34.542881 -565.054871 
93.368164 34.118797 -564.165649 
93.952377 33.874222 -563.653564 
39.920422 95.580071 -583.387268 
40.370102 93.818993 -584.003113 
40.611111 92.870049 -584.333740 
40.886410 91.770065 -584.713257 
41.180992 90.565590 -585.122437 
41.479843 89.303177 -585.542175 
41.767956 88.029381 -585.953308 
42.030323 86.790741 -586.336548 
42.261120 85.582115 -586.687256 
42.496258 84.072472 -587.075378 
42.641857 82.778748 -587.352417 
42.726887 81.645752 -587.548096 
42.780315 80.618309 -587.692078 
42.834404 79.586418 -587.820740 
42.925213 78.379478 -587.970642 
43.050308 77.180603 -588.117615 
43.212364 75.986649 -588.257935 
43.411976 74.805344 -588.386963 
43.644920 73.649376 -588.499878 
43.908524 72.506783 -588.594238 
44.196392 71.387848 -588.665222 
44.502312 70.302406 -588.707886 
44.825794 69.251236 -588.716064 
45.174942 68.221817 -588.681946 
45.558765 67.199844 -588.597351 
45.978226 66.189446 -588.457520 
46.425228 65.204529 -588.266174 
46.907650 64.219048 -588.022461 
47.418621 63.243565 -587.730164 
47.953712 62.284386 -587.391235 
48.524757 61.323612 -586.998840 
49.116417 60.394527 -586.573547 
49.732090 59.496700 -586.126038 
50.376656 58.627754 -585.666077 
51.076981 57.756214 -585.185181 
51.804710 56.909046 -584.701477 
52.554413 56.078133 -584.213623 
53.320320 55.255695 -583.720459 
54.095356 54.436665 -583.221985 
54.875542 53.616119 -582.716553 
55.655048 52.791672 -582.203857 
56.428783 51.960217 -581.683105 
57.197327 51.120895 -581.154724 
57.967419 50.283386 -580.625732 
58.749226 49.455769 -580.102051 
59.559555 48.639465 -579.585327 
60.409031 47.834030 -579.076294 
61.277107 47.053772 -578.585083 
62.155205 46.299210 -578.113342 
63.032303 45.573204 -577.663574 
63.908226 44.876820 -577.230896 
64.792076 44.210438 -576.803833 
65.690735 43.576588 -576.372131 
66.596519 42.986015 -575.932983 
67.518631 42.428360 -575.479004 
68.462387 41.892033 -575.006836 
69.427147 41.369404 -574.515747 
70.458542 40.829941 -573.981567 
71.494850 40.307514 -573.440186 
72.483093 39.833389 -572.925842 
73.421700 39.415726 -572.447205 
74.529480 39.017872 -571.926758 
75.518227 38.881237 -571.580139 
76.611229 39.090073 -571.401978 
77.756035 39.538895 -571.339050 
78.818626 39.805534 -571.154602 
79.931725 39.586422 -570.642395 
80.991951 39.390606 -570.222717 
82.381989 39.153564 -569.723206 
83.587349 38.903820 -569.276001 
84.690956 38.628563 -568.824829 
85.922585 38.268829 -568.248779 
87.288811 37.808113 -567.507629 
88.502838 37.348652 -566.757568 
89.631859 36.889698 -566.000305 
90.740677 36.418545 -565.217957 
91.772049 35.966759 -564.464661 
92.668709 35.565891 -563.794495 
93.771713 35.067295 -562.959778 
94.381691 34.745319 -562.544922 
40.051453 94.922173 -582.365356 
40.479706 93.240112 -582.934692 
40.709232 92.333527 -583.240540 
40.971420 91.281944 -583.591919 
41.251980 90.129295 -583.971497 
41.536621 88.919518 -584.361938 
41.811050 87.696533 -584.745666 
42.060978 86.504265 -585.105408 
42.280872 85.336586 -585.437378 
42.505028 83.868835 -585.811157 
42.644161 82.600616 -586.085266 
42.726032 81.481010 -586.285278 
42.778408 80.459084 -586.436829 
42.832336 79.429176 -586.572388 
42.922890 78.224342 -586.725220 
43.047184 77.029472 -586.869629 
43.207493 75.843338 -587.002808 
43.404053 74.675430 -587.120911 
43.632427 73.538811 -587.220886 
43.889740 72.420746 -587.302795 
44.169453 71.330399 -587.364258 
44.465199 70.276512 -587.403137 
44.776207 69.259384 -587.414856 
45.110138 68.266930 -587.391846 
45.475536 67.285370 -587.326111 
45.873325 66.318520 -587.212219 
46.296532 65.378426 -587.051880 
46.754135 64.437759 -586.842224 
47.241173 63.504192 -586.583862 
47.755058 62.581242 -586.276062 
48.308498 61.649788 -585.909973 
48.886353 60.743019 -585.503906 
49.491070 59.862324 -585.067749 
50.126583 59.007179 -584.610229 
50.818714 58.147987 -584.122620 
51.539223 57.311581 -583.625549 
52.282528 56.490032 -583.121399 
53.042728 55.675747 -582.612549 
53.812748 54.863640 -582.101929 
54.588978 54.048298 -581.589294 
55.366028 53.226749 -581.075378 
56.139221 52.395306 -580.560486 
56.909393 51.552948 -580.044373 
57.683067 50.710155 -579.529419 
58.470161 49.875893 -579.016663 
59.287281 49.052429 -578.502747 
60.144325 48.240280 -577.986328 
61.018970 47.455063 -577.480774 
61.900871 46.698509 -576.991272 
62.777348 45.974598 -576.524109 
63.648037 45.284019 -576.077148 
64.523193 44.625450 -575.641052 
65.410851 43.999657 -575.207397 
66.304726 43.415657 -574.775024 
67.215080 42.862595 -574.335144 
68.148300 42.328922 -573.881470 
69.104889 41.807018 -573.410400 
70.131180 41.266361 -572.895996 
71.164566 40.741798 -572.371582 
72.149651 40.266178 -571.870483 
[...]
POINT_DATA 6531
SCALARS sample_scalars float 1
LOOKUP_TABLE my_table
0.596340
1.023153
1.840495
1.977937
1.646395
1.333165
1.062736
0.756906
0.564222
0.356154
0.235383
0.135344
0.273196
0.272063
0.138526
0.070480
0.219388
0.323389
0.336528
0.176929
0.051061
0.188578
0.233126
0.287131
0.230620
0.219222
0.179464
0.372179
0.425165
0.384581
0.287625
0.338669
0.112342
0.150157
0.330456
0.203189
0.147084
0.291747
0.367113
0.384013
0.339526
0.340533
0.241529
0.145250
0.222211
0.249443
0.206560
0.481521
0.744808
0.859561
0.905428
0.910409
1.068721
1.072812
0.997237
0.989817
1.092064
1.292294
1.383364
1.138680
0.880290
0.773112
0.773289
0.548759
0.419993
0.246278
0.380919
0.395449
0.344866
0.342573
0.233188
0.199100
0.273658
0.592083
0.749696
0.889480
1.065429
1.358032
1.759585
2.017430
1.012070
0.894027
1.788678
1.961423
1.526010
1.374102
1.068669
0.883477
0.674092
0.284507
0.289755
0.178721
0.366599
0.237642
0.270146
0.219524
0.185973
0.358717
0.287681
0.133995
0.115596
0.069133
0.204456
0.220787
0.238574
0.304240
0.233769
0.183595
0.327609
0.138038
0.160795
0.115469
0.192954
0.203756
0.267538
0.307005
0.369134
0.519834
0.633089
0.597088
0.547039
0.486980
0.437390
0.427509
0.446074
0.331839
0.204918
0.160613
0.619575
0.812792
0.893189
0.986850
1.020240
1.059746
0.972773
0.895579
1.005585
1.128018
1.324967
1.400697
1.329155
1.332621
1.332796
1.138769
0.700491
0.236839
0.189174
0.151063
0.223521
0.227427
0.347312
0.336100
0.275951
0.308191
0.061837
0.142577
0.135310
0.426452
0.867885
0.873054
1.024945
0.799531
1.049919
1.123175
1.040226
0.772463
0.640717
0.367110
0.336739
0.193992
0.318045
0.152855
0.316945
0.165384
0.213728
0.328371
0.242482
0.277720
0.296437
0.203082
0.209499
0.142684
0.201864
0.072929
0.225741
0.406272
0.389993
0.319306
0.420509
0.413963
0.476773
0.407886
0.412542
0.485491
0.461048
0.508151
0.763077
0.711826
0.700686
0.778598
0.792146
0.711272
0.662419
0.667123
0.606365
0.519151
0.310980
0.162306
0.393435
0.702263
0.877251
0.862666
0.840426
0.700490
0.587515
0.656529
0.738880
0.896393
1.017718
1.105529
1.235835
1.383237
1.433649
1.155269
0.546640
0.197626
0.294242
0.302735
0.351105
0.447146
0.627325
0.678010
0.695673
0.927796
1.154272
1.213273
0.961998
0.630851
0.437800
0.216301
1.027209
0.173387
0.237511
0.262663
0.365017
0.211121
0.177488
0.267007
0.116473
0.231362
0.167253
0.323013
0.097586
0.358906
0.310984
0.472105
0.301096
0.251348
0.479488
0.413364
0.397701
0.383407
0.432873
0.511739
0.593263
0.693232
0.705922
0.681758
0.695019
0.634866
0.405512
0.437146
0.518045
0.544428
0.632800
0.750090
0.638391
0.532896
0.682245
0.838428
0.965223
0.904503
0.901273
0.866066
0.734268
0.666205
0.472212
0.112059
0.339281
0.494539
0.446578
0.454603
0.438657
0.514918
0.607197
0.647932
0.709999
0.709623
0.767258
0.751765
0.781150
0.960155
1.038517
0.814065
0.362756
0.264994
0.211131
0.382028
0.529247
0.794930
1.036944
1.198891
1.451457
1.877908
2.138254
2.021370
1.738670
1.522682
1.209301
0.908623
1.306490
0.942606
0.834000
0.796365
0.736003
0.689645
0.487041
0.587618
0.632750
0.613798
0.564417
0.606404
0.416067
0.459146
0.589709
0.721120
0.793736
0.805440
0.864219
0.917829
0.899212
0.907404
0.894632
0.945950
1.029263
1.090297
1.123852
1.073903
1.084358
0.834385
0.684339
0.719431
0.920400
0.787257
0.849199
0.893030
0.849604
0.878051
1.087429
1.064463
1.082659
1.114978
1.088401
1.004484
0.883716
0.910152
0.625899
0.261776
0.217432
0.184004
0.155963
0.189975
0.326452
0.275189
0.462474
0.562511
0.641056
0.637169
0.661364
0.657997
0.736550
0.886480
0.916468
0.698432
0.160371
0.547403
0.559368
0.585017
0.601071
0.770324
0.941465
1.266284
1.665292
2.051622
2.455453
2.206325
1.770960
1.406694
1.001350
0.815527
1.866075
1.555815
1.432607
1.346298
1.252994
1.140120
1.028588
0.892449
0.881923
0.871297
0.840814
0.846394
0.765420
0.644440
0.770069
0.805184
0.911270
1.072111
1.054644
1.161978
1.114559
1.045469
1.077891
1.139259
1.238653
1.254546
1.204917
1.199318
1.223330
1.030541
0.968975
0.959068
0.997034
1.041126
0.989998
1.035052
1.091639
1.192874
1.198511
1.223754
1.209141
1.300273
1.166064
1.166805
1.137449
1.011554
0.797012
0.484532
0.403593
0.167358
0.238975
0.163868
0.101819
0.197245
0.136529
0.247617
0.299928
0.361587
0.378945
0.361632
0.361564
0.222878
0.130299
0.418333
0.164682
0.495435
0.661784
0.613609
0.643537
0.709676
1.000635
1.252636
1.546807
1.872368
1.915399
1.585023
1.211455
0.917724
0.457835
0.243482
2.048552
1.913471
1.775921
1.668654
1.543327
1.456992
1.241317
1.166492
0.984427
0.956700
0.919830
0.837564
0.933387
0.754979
0.820881
0.833407
0.795142
1.113261
1.137079
1.122773
1.078802
0.978262
1.000214
1.042213
1.072201
1.095700
1.067819
1.180028
1.175725
1.108141
1.027785
1.025843
0.925175
0.984759
1.016804
1.023509
1.108762
1.214595
1.234550
1.247511
1.207343
1.279327
1.137488
1.111581
1.105811
0.998272
0.688987
0.374381
0.305730
0.215416
0.390845
0.400321
0.352190
0.322764
0.316582
0.158566
0.320416
0.129438
0.158929
0.240430
0.309817
0.502498
0.559494
0.224393
0.199929
0.297716
0.270374
0.383355
0.556507
0.743444
0.977274
1.055343
1.232145
1.419437
1.174027
0.950298
0.725691
0.522205
0.344570
0.262656
2.150035
1.971013
1.887625
1.732897
1.610388
1.386183
1.280842
1.181229
1.022165
0.889558
0.742063
0.724690
0.812487
0.738891
0.750258
0.796889
0.761345
0.889743
1.063407
1.063081
0.974674
0.864000
0.784472
0.737694
0.691126
0.718187
0.767872
0.908628
0.939788
0.839695
0.815526
0.780362
0.708692
0.720929
0.850642
0.871412
0.990438
1.140677
1.090023
1.097716
1.122220
1.153234
1.011417
0.905590
0.925960
0.831369
0.556875
0.353849
0.214701
0.342284
0.358850
0.392522
0.449588
0.366290
0.369171
0.280294
0.258175
0.239334
0.272418
0.447735
0.573045
0.696176
0.741733
0.158748
0.552708
0.224590
0.279559
0.390519
0.622026
0.723979
0.860130
0.799756
0.891022
0.881789
0.648760
0.437461
0.340183
0.197653
0.243254
0.184102
2.059427
1.897860
1.738410
1.585154
1.381231
1.208428
1.028551
0.923287
0.772460
0.708051
0.583176
0.512541
0.575300
0.497813
0.374241
0.374255
0.454379
0.625820
0.741199
0.850338
0.687855
0.497954
0.398153
0.328614
0.338166
0.494697
0.415612
0.461552
0.454537
0.537677
0.381440
0.394507
0.341791
0.369843
0.442833
0.540654
0.580595
0.716822
0.725186
0.728225
0.712151
0.765136
0.688149
0.520711
0.449520
0.458925
0.372054
0.281890
0.223000
0.202038
0.162074
0.200969
0.230616
0.415142
0.428826
0.276627
0.260639
0.219682
0.381937
0.415672
0.490933
0.536027
0.694772
0.151916
0.115272
0.228962
0.321257
0.430536
0.502138
0.445604
0.430353
0.547911
0.688500
0.572118
0.527582
0.460785
0.334411
0.221861
0.241290
0.217543
1.805242
1.624822
1.441189
1.342059
1.111452
0.944127
0.804449
0.670854
0.501790
0.351594
0.216404
0.255096
0.258215
0.197359
0.196908
0.096504
0.078905
0.185495
0.317407
0.345197
0.243651
0.326623
0.275884
0.428184
0.530931
0.499386
0.495050
0.448042
0.332988
0.406137
0.301256
0.269671
0.270859
0.317720
0.232193
0.176835
0.209995
0.262746
0.242985
0.253940
0.248692
0.279432
0.332111
0.186983
0.212553
0.367374
0.210515
0.179208
0.274703
0.276706
0.233371
0.366356
0.299346
0.154881
0.294367
0.233005
0.330304
0.187917
0.083952
0.198914
0.082104
0.164152
0.366453
0.074101
0.262228
0.284257
0.236784
0.284707
0.291537
0.203541
0.201500
0.279545
0.435787
0.510638
0.498370
0.453257
0.239032
0.090321
0.190088
0.272794
1.559139
1.347243
1.169378
0.961499
0.785723
0.598515
0.424571
0.396154
0.168131
0.277376
0.382540
0.333728
0.485672
0.459100
0.577315
0.551939
0.475904
0.442593
0.559353
0.748857
0.866126
0.988172
1.109498
1.133334
1.206306
1.250464
1.382818
1.329078
1.169048
1.268462
1.091374
0.967381
0.902217
0.871003
0.867796
0.802131
0.787938
0.648878
0.601970
0.605278
0.668390
0.573243
0.566560
0.590297
0.745985
0.760664
0.754774
0.710330
0.660860
0.599533
0.557218
0.621573
0.631788
0.496266
0.445598
0.494577
0.497821
0.493258
0.621356
0.630579
0.587115
0.471255
0.290819
0.344962
0.305070
0.228091
0.176736
0.149201
0.183672
0.218514
0.234541
0.312407
0.221277
0.250872
0.314767
0.189245
0.224928
0.265584
0.173155
0.284534
1.295193
1.043059
0.908654
0.714149
0.478524
0.325413
0.236825
0.138820
0.397578
0.456433
0.424405
0.556529
0.543695
0.609121
0.643726
0.590902
0.595029
0.554077
0.724841
0.955255
1.204676
1.214754
1.126063
1.259108
1.356653
1.362269
1.216545
1.199190
1.317204
1.469559
1.493274
1.519749
1.608260
1.503768
1.415899
1.331018
1.297966
1.287592
1.259611
1.262785
1.324031
1.306987
1.276338
1.327744
1.491607
1.524923
1.381158
1.283646
1.241479
1.221094
1.102243
0.973647
0.879803
0.797664
0.807773
0.883250
1.039537
1.141299
1.266249
1.271878
1.238146
1.073862
0.955530
0.948677
0.837766
0.293297
0.385800
0.508961
0.527571
0.492184
0.449720
0.457336
0.425816
0.424897
0.274566
0.290431
0.145922
0.151543
0.216384
0.180197
0.779875
0.491439
0.441054
0.388780
0.234337
0.289777
0.222697
0.353092
0.290949
0.354903
0.396678
0.457623
0.485829
0.465791
0.511612
0.479079
0.538559
0.635063
0.804493
0.856891
0.894404
0.906710
0.960812
1.028320
1.217851
1.166007
1.063277
1.197974
1.362570
1.473310
1.455371
1.540276
1.592723
1.577045
1.568426
1.614418
1.716827
1.844595
1.981242
1.878801
1.810065
1.724867
1.701682
1.718553
1.802806
1.951787
1.996505
1.841299
1.577852
1.467297
1.333064
1.195301
1.096404
1.101858
1.223776
1.389042
1.586681
1.627755
1.566501
1.384228
1.266709
1.260477
1.251927
1.143355
0.862556
0.536396
0.629238
0.686572
0.657974
0.535727
0.465125
0.376018
0.402905
0.539582
0.632945
0.631730
0.403382
0.345983
0.215969
0.178462
0.288055
0.489843
0.631872
0.384812
0.372758
0.471766
0.602055
0.526271
0.434484
0.452991
0.411754
0.338140
0.341382
0.403893
0.431233
0.443828
0.464741
0.384528
0.236264
0.329844
0.421468
0.697375
0.775861
0.816665
0.907622
0.985843
0.820550
0.937652
1.091579
1.153339
1.210672
1.310303
1.372653
1.367002
1.228578
1.148341
1.226888
1.323629
1.317167
1.258659
1.186333
1.153284
1.233798
1.307035
1.287425
1.338676
1.398181
1.380757
1.608146
1.748335
1.601065
1.452563
1.427072
1.539631
1.699087
1.774975
1.599238
1.558035
1.417736
1.127210
0.942979
1.046622
1.082143
1.030516
0.712362
0.351786
0.381197
0.454151
0.435368
0.246844
0.266776
0.192627
0.211468
0.264179
0.486039
0.726721
0.827043
0.729313
0.534456
0.555425
0.177201
1.041723
1.165906
0.982018
0.941861
0.767640
0.691680
0.544252
0.420952
0.492847
0.318167
0.152122
0.301361
0.161714
0.388700
0.280671
0.306779
0.171926
0.173498
0.342806
0.228385
0.494513
0.568523
0.601103
0.692858
0.841966
0.842999
0.818815
0.977486
1.090934
1.071720
1.090319
1.040360
1.092348
0.898043
0.852727
0.770966
0.714814
0.647525
0.715870
0.691310
0.675351
0.763598
0.845891
0.889365
1.028391
0.969946
0.896940
1.082033
1.347229
1.462524
1.379060
1.218469
1.375026
1.368415
1.146675
1.066507
1.177313
1.227799
0.938960
0.749179
0.674794
0.678267
0.653513
0.299253
0.337060
0.219329
0.206213
0.132328
0.327955
0.328287
0.372926
0.325269
0.202046
0.360040
0.429656
0.654007
0.843845
0.936593
0.997222
0.096918
1.429171
1.703300
1.478413
1.248488
1.071239
0.914704
0.697988
0.481491
0.453156
0.265337
0.262360
0.165516
0.289939
0.305935
0.200436
0.294320
0.135668
0.397477
0.338449
0.247240
0.267537
0.447530
0.448514
0.482143
0.665012
0.682843
0.782599
0.872463
0.993519
0.826172
0.695910
0.564330
0.538086
0.470675
0.420650
0.398656
0.349435
0.264223
0.160030
0.259834
0.267256
0.215818
0.485941
0.468726
0.530879
0.490299
0.605001
0.785545
0.905273
1.055455
1.068111
1.040059
0.995222
0.951761
0.850465
0.887724
1.157522
1.267335
0.949952
0.672919
0.535200
0.461849
0.420247
0.260977
0.309523
0.269479
0.319958
0.241200
0.249752
0.459691
0.501900
0.328272
0.092766
0.372190
0.588831
0.882714
1.147951
1.443007
0.963830
0.198559
0.304190
0.147476
0.380989
0.367243
0.348409
0.817722
0.377984
0.457094
0.713967
0.176697
0.406521
0.442100
0.401662
0.405447
0.566378
0.671233
0.152835
0.425711
0.294449
0.157538
0.352092
0.321758
0.332687
0.628487
0.520346
0.637765
0.208955
0.572363
0.216218
0.378554
0.123083
0.279881
0.384548
0.725335
0.629649
0.623791
0.255398
0.790885
0.358926
0.504972
0.229682
0.234239
0.459503
0.826320
0.682737
0.496648
0.196608
1.024317
0.736293
0.579570
0.286240
0.693579
0.876158
1.173637
0.917175
0.228598
0.322463
0.564156
1.025921
0.700841
0.463428
1.180060
1.304389
1.414039
1.246221
0.396539
0.318926
0.395557
0.481774
0.538943
0.635021
1.004578
1.051856
1.216828
1.208321
0.515443
0.245655
0.527924
0.203581
0.496249
0.601675
0.630571
0.490015
0.712097
0.962104
0.335268
0.440948
0.941626
0.472544
0.519886
0.118115
0.184220
0.287161
0.267306
0.457667
0.289736
0.404258
1.613129
0.158546
0.427866
0.306889
0.076128
0.208101
0.216238
0.320998
0.562147
0.298511
1.019145
0.595485
0.231944
0.245402
0.332698
0.211867
0.604895
0.902079
1.134793
0.835734
0.411259
0.720598
0.041984
0.195616
0.193940
0.270381
0.425235
0.776695
1.653764
1.454356
0.482080
0.601987
0.163808
0.073472
0.291319
0.284788
0.209040
0.464318
1.428524
1.223666
1.075483
0.721830
0.450020
0.112434
0.228388
0.345085
0.131833
0.173331
1.214890
0.854963
0.535358
1.559548
1.157425
0.269791
0.331991
0.209715
0.329407
0.242944
0.232223
1.117281
0.661942
0.354479
0.191404
0.214150
0.254130
0.222730
0.200241
0.182878
0.294963
0.715743
1.112269
0.541738
0.287522
0.178069
0.332029
0.508974
0.631992
0.190148
0.291425
0.529701
0.857870
0.435875
0.308761
0.132898
0.327612
0.592238
0.472362
0.306747
0.443373
0.467976
0.588632
0.330328
0.412308
0.247922
0.298833
0.315829
0.138757
0.371285
0.418675
0.405633
0.404259
0.449745
0.545960
0.579476
0.273203
0.157115
0.355758
0.688612
0.638567
0.802896
0.523228
0.489044
0.715690
0.626266
0.545760
0.236837
0.454395
0.729295
0.744608
0.881965
0.750985
0.361163
0.692098
0.696558
0.622645
0.421023
0.518450
0.671869
0.684532
0.782107
0.853954
0.319189
0.659722
0.795125
0.771908
0.488010
0.605377
0.805605
0.787836
0.675918
0.604535
0.439185
0.617784
0.760947
0.889741
0.381179
0.740557
1.019146
0.826846
0.830576
0.710177
0.337260
0.522253
0.642273
0.745858
0.365899
0.671023
0.940921
0.914010
0.889292
0.839683
0.244126
0.399274
0.570380
0.562449
0.203157
0.573985
0.926203
0.908796
0.988138
0.640552
0.127057
0.215296
0.491330
0.596494
0.223001
0.274625
0.813531
0.863658
0.918606
0.553774
0.203744
0.378961
0.276872
0.256966
0.148455
0.374560
0.658147
0.734758
0.769482
0.702533
0.263999
0.380924
0.309355
0.291876
0.115680
0.277452
0.271287
0.263117
0.271553
0.320698
0.325997
0.387196
0.228559
0.215433
0.197584
0.194027
0.082836
0.219822
0.346697
0.599136
0.126299
0.031424
0.233140
0.310280
0.281116
0.186978
0.262105
0.386540
0.248822
0.673759
0.220800
0.397064
0.298587
0.446184
0.309408
0.198191
0.640635
0.840896
0.802323
0.833130
0.836863
0.798132
0.843200
0.793546
0.770338
0.789965
0.807405
0.734183
0.767620
0.797957
0.873670
0.896369
0.866729
0.868010
0.840563
0.794307
0.663761
0.623612
0.601521
0.622376
0.762067
0.690781
0.386240
0.248218
0.247007
0.366074
0.547323
0.674949
0.810363
0.723597
0.527376
0.449188
0.355115
0.328008
0.182263
0.227491
0.484105
0.702716
0.772573
0.744977
0.792706
0.731037
0.741534
0.726708
0.635437
0.584144
0.599516
0.628151
0.637481
0.613284
0.717334
0.774192
0.798424
0.795278
0.737025
0.589747
0.419592
0.412254
0.430072
0.359099
0.526396
0.676458
0.538231
0.255439
0.481777
0.486591
0.546426
0.731953
0.810488
0.773691
0.990437
0.951529
0.870526
0.623754
0.492009
0.467678
0.307181
0.342103
0.328814
0.444497
0.489015
0.541788
0.495295
0.396397
0.360144
0.371206
0.428106
0.363329
0.247423
0.266945
0.361865
0.475556
0.497244
0.461588
0.407617
0.285030
0.352382
0.281456
0.110497
0.271482
0.138793
0.247056
0.611872
0.178042
0.356286
0.413910
0.596796
0.609429
0.832446
0.957260
1.337385
1.419201
1.279681
1.015336
0.900761
0.839799
0.274780
0.304343
0.361512
0.075376
0.107504
0.142263
0.114242
0.276559
0.316703
0.158010
0.128409
0.135291
0.381864
0.245683
0.134559
0.102665
0.127004
0.361677
0.295270
0.268602
0.163835
0.293522
0.319735
0.290351
0.314693
0.083957
0.492356
0.356610
0.333693
0.428702
0.477803
0.598980
0.758157
0.933128
1.608143
1.856551
1.648712
1.355198
1.262465
1.170581
0.673335
0.432885
0.444199
0.500005
0.423513
0.539880
0.441772
0.483314
0.569624
0.479341
0.535543
0.473966
0.530025
0.626255
0.427908
0.444177
0.389818
0.427857
0.482958
0.484731
0.577122
0.558803
0.608798
0.560249
0.572778
0.338650
0.135836
0.288469
0.451053
0.271538
0.309556
0.315852
0.625871
0.798799
1.801375
2.064052
1.880727
1.632461
1.530015
1.520179
0.875902
0.750096
0.733394
0.707676
0.659001
0.795606
0.777127
0.743826
0.741331
0.776312
0.777249
0.778797
0.763397
0.701085
0.702361
0.680387
0.707913
0.617197
0.699524
0.724525
0.835534
0.835308
0.855586
0.806549
0.721104
0.550570
0.404304
0.121703
0.132059
0.297457
0.307937
0.144715
0.298055
0.627498
1.858130
2.107145
1.989792
1.762442
1.704426
1.719432
1.050509
0.896647
0.931478
0.875858
0.842468
0.891728
0.909544
0.938591
0.897327
0.966146
0.953017
0.912890
0.962712
0.855551
0.848290
0.852106
0.821980
0.832287
0.816751
0.882691
0.949000
0.916347
0.981078
0.962530
0.866369
0.707076
0.531702
0.349954
0.164567
0.093736
0.180039
0.297611
0.281828
0.517998
1.783535
1.982119
1.908402
1.706643
1.639105
1.709221
1.091907
0.872122
0.906717
0.924940
0.931002
0.912027
0.898309
0.943020
0.885346
0.939235
0.969951
0.798132
0.944472
0.840676
0.810030
0.830460
0.793618
0.894893
0.760575
0.920192
0.925036
0.958146
1.001888
0.957079
0.852317
0.601983
0.456860
0.168077
0.110812
0.241131
0.401833
0.421754
0.448987
0.548363
1.512514
1.728396
1.642524
1.503866
1.427737
1.523750
1.073572
0.750208
0.770106
0.754428
0.860603
0.874353
0.830117
0.846126
0.838774
0.781234
0.808587
0.616604
0.814090
0.777761
0.657620
0.691839
0.763044
0.784608
0.441323
0.747188
0.767835
0.911581
0.813490
0.781941
0.730649
0.443179
0.380376
0.208502
0.092450
0.356084
0.539761
0.691925
0.480980
0.636425
1.172618
1.315313
1.395748
1.250223
1.166608
1.417658
0.871357
0.703723
0.681062
0.672199
0.722473
0.756929
0.645720
0.766348
0.667843
0.579426
0.705717
0.596077
0.689315
0.581265
0.565863
0.572327
0.644605
0.590490
0.512600
0.621203
0.720054
0.716175
0.667222
0.684660
0.477037
0.378887
0.393895
0.189092
0.163713
0.263792
0.490853
0.579175
0.596616
0.526909
0.687321
0.825180
0.955401
1.035813
1.061898
1.183685
0.643313
0.474854
0.521083
0.472228
0.646632
0.666345
0.241146
0.526860
0.378542
0.409203
0.576813
0.532378
0.427616
0.448291
0.491799
0.515066
0.448421
0.445468
0.303538
0.560228
0.522166
0.458232
0.559111
0.388255
0.437672
0.331442
0.265039
0.281399
0.157039
0.127932
0.201380
0.411250
0.752984
0.282249
0.138571
0.336744
0.454075
0.608514
0.794847
0.837958
0.343238
0.189334
0.270779
0.422497
0.337506
0.339057
0.240952
0.274928
0.221765
0.410656
0.328152
0.219204
0.179143
0.429748
0.368883
0.247823
0.290021
0.430137
0.287359
0.287965
0.293197
0.343662
0.291100
0.213032
0.290807
0.131363
0.178516
0.549568
0.281782
0.339912
0.235432
0.259557
0.372852
0.393934
0.552731
0.372595
0.206147
0.229875
0.527539
0.622701
0.373288
0.310678
0.150885
0.032751
0.152389
0.162595
0.436637
0.349418
0.209017
0.074034
0.184276
0.347664
0.372439
0.202672
0.139403
0.260854
0.322878
0.171735
0.163878
0.249580
0.313208
0.174505
0.220635
0.361140
0.329208
0.293872
0.097907
0.126664
0.185709
0.200474
0.367318
0.232330
0.232250
0.760649
0.948016
0.856021
0.813003
0.627121
0.227255
0.444344
0.112117
0.368213
0.353326
0.392744
0.363555
0.403271
0.456592
0.353615
0.399257
0.498146
0.446640
0.509288
0.424112
0.406804
0.477880
0.378788
0.324188
0.395018
0.446798
0.384992
0.303480
0.367877
0.373452
0.605038
0.535956
0.431497
0.213598
0.372230
0.368282
0.326454
0.418747
0.563527
0.336038
0.689345
0.834960
1.050853
0.948034
0.811978
0.228904
0.459606
0.311901
0.604938
0.587062
0.540176
0.543007
0.562496
0.581197
0.674133
0.526998
0.569358
0.597738
0.727472
0.694530
0.669687
0.598858
0.668476
0.620875
0.652523
0.584569
0.612727
0.619885
0.534226
0.543991
0.633419
0.579195
0.329905
0.141607
0.391342
0.267603
0.385161
0.517816
0.634331
0.656510
0.713218
0.289436
0.420859
0.726515
0.852704
0.654438
0.364409
0.218552
0.493163
0.674947
0.675966
0.748373
0.755502
0.763128
0.731710
0.735205