# vtk DataFile Version 2.0
Comment goes here
ASCII
DATASET UNSTRUCTURED_GRID
POINTS 6500 float
47.627109 1.063886 9.919660 
46.206550 1.067243 9.911967 
44.552974 1.071073 9.901400 
42.952223 1.074339 9.884670 
41.504424 1.075953 9.857909 
39.968645 1.077918 9.813971 
38.431436 1.081654 9.757986 
36.900668 1.086243 9.706123 
35.369591 1.089071 9.674268 
33.837899 1.086895 9.665660 
32.312168 1.076776 9.682046 
30.775743 1.059289 9.704173 
29.243938 1.048595 9.647411 
27.739801 1.037015 9.406147 
26.276247 0.992842 8.964671 
24.854266 0.944072 8.396812 
23.462039 0.883447 7.758251 
22.123522 0.801810 7.046770 
20.868461 0.710164 6.200470 
19.711257 0.626994 5.165114 
18.592219 0.542755 4.109610 
17.363551 0.437237 3.168974 
16.063994 0.339550 2.349339 
14.676690 0.258592 1.791744 
13.161508 0.214956 1.823548 
11.713350 0.293820 2.228812 
10.376818 0.393716 2.935730 
9.121748 0.476301 3.874445 
7.955420 0.556296 4.873083 
6.737209 0.652438 5.801869 
5.487184 0.752493 6.663116 
4.251280 0.833760 7.573160 
2.984653 0.901774 8.443288 
1.653505 0.953893 9.186789 
0.224030 0.988138 9.714812 
-1.288916 1.021550 9.830646 
-2.820402 1.047495 9.794468 
-4.352276 1.059819 9.787239 
-5.881255 1.063735 9.775300 
-7.413521 1.069721 9.732019 
-8.944826 1.080192 9.654026 
-10.460661 1.083565 9.512977 
-11.981510 1.080961 9.304892 
-13.485246 1.078687 9.015213 
-14.969718 1.075000 8.634839 
-16.458143 1.064172 8.261256 
-17.978524 1.055145 8.086767 
-19.486894 1.061395 7.911844 
-21.008079 1.070685 7.681185 
-22.530001 1.074078 7.497074 
-24.052852 1.086924 7.357485 
-25.584502 1.113258 7.301813 
-27.100755 1.128223 7.419385 
-28.571604 1.112809 7.783002 
-29.988323 1.078788 8.409480 
-31.328069 1.047060 9.156456 
-32.765497 1.020707 9.673640 
-34.273292 1.024242 9.850295 
-35.812505 1.044684 9.847630 
-37.335335 1.054188 9.807011 
-38.864852 1.059982 9.765900 
-40.397903 1.063979 9.732121 
-41.882931 1.066136 9.708893 
-43.557384 1.067300 9.694974 
47.627109 1.659915 9.812463 
46.206550 1.663163 9.804790 
44.552974 1.666845 9.794250 
42.952223 1.669892 9.777558 
41.504424 1.671192 9.750854 
39.968645 1.672817 9.706978 
38.431436 1.676276 9.651043 
36.900668 1.680620 9.599223 
35.369591 1.683110 9.567429 
33.837899 1.680339 9.558928 
32.312168 1.669185 9.575500 
30.775743 1.649865 9.597957 
29.243938 1.634697 9.541999 
27.739801 1.611791 9.302772 
26.276247 1.545182 8.865331 
24.854266 1.462295 8.303608 
23.462039 1.356473 7.673176 
22.123522 1.220985 6.971380 
20.868461 1.071954 6.135402 
19.711257 0.932649 5.110141 
18.592219 0.794052 4.064414 
17.363551 0.633049 3.133757 
16.063994 0.488770 2.322502 
14.676690 0.377677 1.770327 
13.161508 0.329100 1.803019 
11.713350 0.430113 2.204300 
10.376818 0.572313 2.903609 
9.121748 0.708427 3.832697 
7.955420 0.844355 4.821275 
6.737209 0.999028 5.739534 
5.487184 1.156380 6.590476 
4.251280 1.290345 7.491042 
2.984653 1.404519 8.352868 
1.653505 1.494121 9.089629 
0.224030 1.556246 9.612637 
-1.288916 1.606515 9.725439 
-2.820402 1.639259 9.688039 
-4.352276 1.653348 9.680492 
-5.881255 1.657322 9.668543 
-7.413521 1.662426 9.625420 
-8.944826 1.670339 9.547887 
-10.460661 1.666563 9.408124 
-11.981510 1.647840 9.202938 
-13.485246 1.620738 8.917725 
-14.969718 1.590027 8.542211 
-16.458143 1.558556 8.172341 
-17.978524 1.535841 8.000313 
-19.486894 1.533618 7.826914 
-21.008079 1.536950 7.597326 
-22.530001 1.535464 7.414093 
-24.052852 1.544326 7.275220 
-25.584502 1.569957 7.219675 
-27.100755 1.594261 7.335567 
-28.571604 1.603151 7.694813 
-29.988323 1.602782 8.315239 
-31.328069 1.602629 9.056536 
-32.765497 1.599306 9.569578 
-34.273292 1.613500 9.744316 
-35.812505 1.637096 9.741083 
-37.335335 1.647764 9.700256 
-38.864852 1.654104 9.659047 
-40.397903 1.658302 9.625231 
-41.882931 1.660415 9.602011 
-43.557384 1.661382 9.588127 
47.627109 2.195890 9.683406 
46.206550 2.199039 9.675756 
44.552974 2.202589 9.665248 
42.952223 2.205439 9.648604 
41.504424 2.206456 9.621968 
39.968645 2.207774 9.578165 
38.431436 2.210985 9.522290 
36.900668 2.215107 9.470523 
35.369591 2.217294 9.438802 
33.837899 2.213989 9.430430 
32.312168 2.201903 9.447227 
30.775743 2.180935 9.470081 
29.243938 2.161745 9.415091 
27.739801 2.128654 9.178317 
26.276247 2.041870 8.745734 
24.854266 1.928302 8.191398 
23.462039 1.781838 7.570752 
22.123522 1.597925 6.880617 
20.868461 1.397290 6.057064 
19.711257 1.207506 5.043958 
18.592219 1.020028 4.010001 
17.363551 0.809131 3.091358 
16.063994 0.622955 2.290192 
14.676690 0.484762 1.744542 
13.161508 0.431743 1.778304 
11.713350 0.552672 2.174788 
10.376818 0.732916 2.864937 
9.121748 0.917164 3.782435 
7.955420 1.103389 4.758902 
6.737209 1.310696 5.664487 
5.487184 1.519572 6.503023 
4.251280 1.700925 7.392179 
2.984653 1.856609 8.244009 
1.653505 1.979916 8.972654 
0.224030 2.067112 9.489625 
-1.288916 2.132540 9.598777 
-2.820402 2.171397 9.559905 
-4.352276 2.187075 9.551976 
-5.881255 2.191101 9.540014 
-7.413521 2.195411 9.497083 
-8.944826 2.201024 9.420103 
-10.460661 2.190819 9.281888 
-11.981510 2.157601 9.080192 
-13.485246 2.108173 8.800355 
-14.969718 2.053161 8.430692 
-16.458143 2.003126 8.065292 
-17.978524 1.968103 7.896228 
-19.486894 1.958261 7.724664 
-21.008079 1.956235 7.496366 
-22.530001 1.950361 7.314190 
-24.052852 1.955642 7.176179 
-25.584502 1.980641 7.120786 
-27.100755 2.013341 7.234657 
-28.571604 2.044087 7.588640 
-29.988323 2.073979 8.201779 
-31.328069 2.102219 8.936240 
-32.765497 2.119605 9.444295 
-34.273292 2.143386 9.616724 
-35.812505 2.169818 9.612809 
-37.335335 2.181531 9.571730 
-38.864852 2.188363 9.530402 
-40.397903 2.192743 9.496543 
-41.882931 2.194816 9.473332 
-43.557384 2.195605 9.459491 
47.627109 2.848455 9.516345 
46.206550 2.851484 9.508726 
44.552974 2.854873 9.498259 
42.952223 2.857483 9.481676 
41.504424 2.858156 9.455128 
39.968645 2.859101 9.411422 
38.431436 2.862010 9.355623 
36.900668 2.865863 9.303926 
35.369591 2.867681 9.272299 
33.837899 2.863724 9.264094 
32.312168 2.850505 9.281181 
30.775743 2.827529 9.304549 
29.243938 2.803441 9.250813 
27.739801 2.757950 9.017213 
26.276247 2.646601 8.590919 
24.854266 2.495680 8.046146 
23.462039 2.299734 7.438168 
22.123522 2.056861 6.763126 
20.868461 1.793396 5.955658 
19.711257 1.542153 4.958287 
18.592219 1.295161 3.939565 
17.363551 1.023517 3.036474 
16.063994 0.786329 2.248367 
14.676690 0.615143 1.711163 
13.161508 0.556714 1.746311 
11.713350 0.701892 2.136587 
10.376818 0.928454 2.814878 
9.121748 1.171309 3.717372 
7.955420 1.418772 4.678163 
6.737209 1.690163 5.567342 
5.487184 1.961770 6.389818 
4.251280 2.200819 7.264203 
2.984653 2.407042 8.103095 
1.653505 2.571386 8.821234 
0.224030 2.689107 9.330391 
-1.288916 2.772992 9.434817 
-2.820402 2.819292 9.394040 
-4.352276 2.836903 9.385616 
-5.881255 2.840993 9.373637 
-7.413521 2.844337 9.330954 
-8.944826 2.847149 9.254691 
-10.460661 2.829116 9.118480 
-11.981510 2.778251 8.921302 
-13.485246 2.701641 8.648423 
-14.969718 2.617042 8.286335 
-16.458143 2.544404 7.926722 
-17.978524 2.494395 7.761494 
-19.486894 2.475277 7.592305 
-21.008079 2.466728 7.365677 
-22.530001 2.455511 7.184868 
-24.052852 2.456431 7.047974 
-25.584502 2.480660 6.992778 
-27.100755 2.523585 7.104031 
-28.571604 2.580940 7.451202 
-29.988323 2.647677 8.054909 
-31.328069 2.710486 8.780520 
-32.765497 2.753086 9.282120 
-34.273292 2.788539 9.451561 
-35.812505 2.818423 9.446762 
-37.335335 2.831410 9.405357 
-38.864852 2.838840 9.363876 
-40.397903 2.843440 9.329960 
-41.882931 2.845465 9.306762 
-43.557384 2.846038 9.292976 
47.627109 3.507138 9.323904 
46.206550 3.510045 9.316321 
44.552974 3.513272 9.305901 
42.952223 3.515640 9.289389 
41.504424 3.515965 9.262943 
39.968645 3.516533 9.219346 
38.431436 3.519137 9.163637 
36.900668 3.522719 9.112019 
35.369591 3.524164 9.080501 
33.837899 3.519550 9.072488 
32.312168 3.505186 9.089909 
30.775743 3.480185 9.113869 
29.243938 3.451152 9.061578 
27.739801 3.393145 8.831634 
26.276247 3.257002 8.412584 
24.854266 3.068376 7.878827 
23.462039 2.822484 7.285441 
22.123522 2.520099 6.627787 
20.868461 2.193216 5.838847 
19.711257 1.879937 4.859600 
18.592219 1.572873 3.858429 
17.363551 1.239912 2.973252 
16.063994 0.951235 2.200188 
14.676690 0.746745 1.672714 
13.161508 0.682856 1.709457 
11.713350 0.852511 2.092582 
10.376818 1.125825 2.757214 
9.121748 1.427835 3.642425 
7.955420 1.737110 4.585157 
6.737209 2.073186 5.455438 
5.487184 2.408113 6.259414 
4.251280 2.705400 7.116784 
2.984653 2.962634 7.940773 
1.653505 3.168401 8.646809 
0.224030 3.316933 9.146965 
-1.288916 3.419448 9.245949 
-2.820402 3.473261 9.202976 
-4.352276 3.492823 9.193982 
-5.881255 3.496977 9.181985 
-7.413521 3.499346 9.139586 
-8.944826 3.499331 9.064150 
-10.460661 3.473398 8.930247 
-11.981510 3.404720 8.738273 
-13.485246 3.300671 8.473410 
-14.969718 3.186208 8.120048 
-16.458143 3.090756 7.767099 
-17.978524 3.025621 7.606291 
-19.486894 2.997139 7.439837 
-21.008079 2.982006 7.215133 
-22.530001 2.965396 7.035900 
-24.052852 2.961915 6.900292 
-25.584502 2.985367 6.845323 
-27.100755 3.038611 6.953561 
-28.571604 3.122825 7.292885 
-29.988323 3.226752 7.885726 
-31.328069 3.324454 8.601143 
-32.765497 3.392505 9.095307 
-34.273292 3.439739 9.261307 
-35.812505 3.473108 9.255489 
-37.335335 3.487380 9.213708 
-38.864852 3.495414 9.172051 
-40.397903 3.500238 9.138070 
-41.882931 3.502214 9.114886 
-43.557384 3.502568 9.101164 
47.627109 4.103118 9.102453 
46.206550 4.105916 9.094910 
44.552974 4.108996 9.084545 
42.952223 4.111145 9.068115 
41.504424 4.111156 9.041785 
39.968645 4.111382 8.998315 
38.431436 4.113711 8.942709 
36.900668 4.117046 8.891182 
35.369591 4.118154 8.859790 
33.837899 4.112945 8.851997 
32.312168 4.097546 8.869803 
30.775743 4.070712 8.894444 
29.243938 4.037206 8.843815 
27.739801 3.967874 8.618080 
26.276247 3.809297 8.207365 
24.854266 3.586556 7.686285 
23.462039 3.295472 7.109691 
22.123522 2.939239 6.472045 
[...]
POINT_DATA 6500
SCALARS sample_scalars float 1
LOOKUP_TABLE my_table
3.646215
2.232822
0.629024
0.218677
0.367451
0.067775
0.452008
0.160699
0.405938
0.235503
0.338113
0.265638
0.283807
0.277446
0.286347
0.301251
0.225092
0.529956
0.459887
0.657707
0.297358
0.462998
0.154637
0.456837
0.078846
0.372949
0.163934
0.416003
0.255897
0.239926
0.402128
0.239946
0.401406
0.163264
0.495301
0.137254
0.506485
0.085799
0.445697
0.153213
0.414920
0.269197
0.438544
0.252450
0.456539
0.306722
0.579819
0.084200
0.505104
0.526518
0.731649
0.728750
0.739645
0.733072
0.469112
0.400997
0.154201
0.460128
0.104833
0.506581
0.084469
0.486223
0.394306
0.436166
3.645614
2.231980
0.626613
0.211467
0.363847
0.051229
0.450931
0.160948
0.406802
0.236448
0.336568
0.259279
0.276883
0.275270
0.283855
0.305836
0.230873
0.533467
0.462698
0.659269
0.310536
0.466944
0.156427
0.455331
0.080871
0.375552
0.166886
0.419792
0.254113
0.241053
0.399270
0.237481
0.395297
0.141200
0.485992
0.102332
0.501014
0.057710
0.441830
0.145413
0.414344
0.288942
0.468824
0.245767
0.452913
0.251052
0.572100
0.064394
0.503690
0.498554
0.725644
0.726051
0.745627
0.729425
0.478868
0.400826
0.202667
0.451952
0.067698
0.501707
0.057679
0.483146
0.391130
0.433605
3.645598
2.231889
0.626024
0.216488
0.366274
0.061663
0.451197
0.158542
0.405105
0.233971
0.336990
0.264417
0.283010
0.275460
0.284775
0.300647
0.225356
0.528643
0.460017
0.656962
0.306622
0.463818
0.163160
0.455784
0.079359
0.374389
0.157657
0.417393
0.255081
0.240067
0.400379
0.239803
0.405559
0.170074
0.500520
0.138799
0.505687
0.080579
0.444745
0.150812
0.414091
0.273980
0.445394
0.176179
0.473198
0.228558
0.512965
0.173137
0.516792
0.472035
0.687655
0.725081
0.711615
0.709492
0.452281
0.425212
0.159658
0.460144
0.101842
0.505672
0.078259
0.485175
0.393032
0.435040
3.645796
2.232286
0.627728
0.213562
0.364463
0.048197
0.449425
0.153271
0.402974
0.229552
0.332834
0.257428
0.275775
0.274246
0.279734
0.309843
0.230685
0.536016
0.463970
0.656938
0.320319
0.465926
0.166334
0.453004
0.080450
0.376716
0.154523
0.421005
0.250648
0.240987
0.392983
0.237011
0.399407
0.163384
0.497656
0.124512
0.502203
0.058983
0.441554
0.141109
0.410352
0.279454
0.456956
0.171503
0.477095
0.214420
0.496396
0.206429
0.526828
0.453196
0.659641
0.693280
0.687741
0.695082
0.455145
0.411789
0.184122
0.455735
0.082192
0.502446
0.055095
0.482065
0.389181
0.431519
3.647990
2.235901
0.640558
0.223060
0.368948
0.064624
0.449597
0.148838
0.400056
0.222760
0.327208
0.249474
0.266847
0.279477
0.271749
0.334146
0.245696
0.557643
0.476307
0.656935
0.342723
0.467370
0.176252
0.449833
0.081819
0.380581
0.147210
0.428449
0.239402
0.246313
0.374724
0.236240
0.385727
0.170529
0.498572
0.127655
0.501189
0.049614
0.440313
0.132343
0.404049
0.279369
0.462827
0.176506
0.481513
0.213037
0.489252
0.214828
0.522538
0.419428
0.622359
0.642988
0.656334
0.669764
0.451006
0.388549
0.214601
0.454586
0.080020
0.501668
0.038058
0.479611
0.385310
0.427500
3.650278
2.239567
0.652920
0.234975
0.374286
0.075268
0.447687
0.132052
0.391747
0.206254
0.317871
0.242043
0.259943
0.280779
0.258591
0.348329
0.252421
0.574798
0.487408
0.656023
0.356484
0.467884
0.188910
0.447847
0.080374
0.382622
0.133524
0.433143
0.231051
0.251122
0.356959
0.236600
0.380494
0.201170
0.512743
0.158694
0.503186
0.051969
0.439748
0.120394
0.394461
0.257787
0.442812
0.152589
0.507088
0.251009
0.485164
0.243291
0.516758
0.381288
0.582533
0.579615
0.606142
0.639345
0.428144
0.381846
0.203612
0.460313
0.102477
0.503098
0.020229
0.476452
0.379600
0.421405
3.653295
2.244249
0.667800
0.265942
0.391072
0.118416
0.450168
0.117340
0.382558
0.188389
0.313837
0.252241
0.272824
0.284535
0.246654
0.346647
0.252302
0.585330
0.500138
0.656824
0.356110
0.462214
0.202356
0.447165
0.074334
0.381617
0.113219
0.434045
0.239236
0.261695
0.352523
0.250387
0.404857
0.278615
0.559552
0.240476
0.518133
0.113172
0.448906
0.134480
0.389677
0.213469
0.392565
0.144707
0.485123
0.232043
0.499823
0.256113
0.524656
0.348386
0.541293
0.543271
0.569228
0.599717
0.379243
0.413932
0.146162
0.487488
0.175598
0.515914
0.087011
0.479330
0.379627
0.419724
3.655302
2.247444
0.678153
0.287821
0.404668
0.150339
0.456278
0.128083
0.383768
0.190601
0.318233
0.264230
0.285323
0.293493
0.246946
0.353873
0.260015
0.593205
0.509117
0.659165
0.361931
0.461065
0.212157
0.446168
0.073054
0.382418
0.103680
0.436555
0.247735
0.270787
0.352481
0.262382
0.421867
0.317481
0.570812
0.279074
0.528783
0.147033
0.457651
0.154455
0.392540
0.204669
0.379251
0.168652
0.459775
0.164902
0.514873
0.223189
0.519607
0.310998
0.503507
0.477224
0.502776
0.572091
0.366436
0.427740
0.137918
0.504122
0.211055
0.525650
0.121746
0.484621
0.384542
0.423338
3.657713
2.251291
0.690481
0.313293
0.421495
0.184527
0.465092
0.146151
0.387789
0.198343
0.326161
0.280326
0.301710
0.305771
0.250449
0.362963
0.270585
0.602160
0.519748
0.662746
0.368281
0.460284
0.222352
0.445358
0.072103
0.383421
0.095521
0.439677
0.259105
0.282059
0.354833
0.277446
0.442133
0.314874
0.542342
0.318967
0.541929
0.182183
0.469122
0.179439
0.398444
0.201211
0.369754
0.205217
0.446635
0.112286
0.530408
0.189365
0.512811
0.268135
0.461541
0.412839
0.439988
0.514839
0.354676
0.439088
0.141946
0.523522
0.247877
0.537861
0.156952
0.492250
0.392246
0.429456
3.660546
2.255820
0.704789
0.341675
0.441280
0.220135
0.476566
0.169551
0.394687
0.211281
0.337516
0.299983
0.321475
0.321172
0.257217
0.374014
0.283880
0.612269
0.516074
0.667555
0.375232
0.459912
0.229074
0.444772
0.071550
0.384647
0.089202
0.443444
0.272911
0.295308
0.359481
0.295167
0.465132
0.270129
0.517897
0.330335
0.557444
0.218163
0.483205
0.207834
0.407364
0.203117
0.363458
0.244582
0.441809
0.070244
0.543908
0.151911
0.509147
0.227500
0.419006
0.367685
0.398464
0.450479
0.342794
0.448198
0.155979
0.545347
0.285604
0.552440
0.192578
0.502203
0.402700
0.438086
3.663785
2.261000
0.720886
0.372278
0.463648
0.256649
0.490603
0.196719
0.404510
0.228884
0.352158
0.322695
0.344159
0.339374
0.267286
0.386887
0.299582
0.623359
0.502011
0.673567
0.382709
0.459979
0.235500
0.444442
0.071468
0.386093
0.085347
0.447817
0.275398
0.310253
0.366518
0.315125
0.453332
0.226673
0.498029
0.287142
0.575150
0.254715
0.499737
0.238618
0.419279
0.210469
0.360231
0.282889
0.442046
0.036622
0.548744
0.111477
0.513665
0.205016
0.383458
0.333251
0.395456
0.402615
0.330887
0.456903
0.176555
0.548956
0.323894
0.569230
0.228582
0.514444
0.415841
0.449232
3.663496
2.262337
0.732310
0.404531
0.488210
0.293740
0.507043
0.226524
0.417202
0.250429
0.369841
0.347950
0.369294
0.360011
0.280535
0.401411
0.317346
0.615793
0.489576
0.675774
0.390629
0.460508
0.242127
0.444396
0.071913
0.387749
0.084485
0.452746
0.262565
0.310869
0.375956
0.336914
0.433794
0.185122
0.483156
0.244512
0.594835
0.291646
0.518511
0.271088
0.434075
0.223006
0.360123
0.314470
0.445064
0.022861
0.533327
0.075581
0.498652
0.217269
0.365285
0.269168
0.363333
0.384222
0.319782
0.448623
0.201600
0.526205
0.318880
0.588037
0.264879
0.528879
0.431531
0.462822
3.660231
2.257006
0.715524
0.379972
0.490252
0.331226
0.525704
0.258208
0.432627
0.275170
0.390243
0.375274
0.396436
0.382758
0.296697
0.417504
0.336898
0.604203
0.478822
0.669380
0.398983
0.461527
0.248960
0.444664
0.072931
0.389621
0.086810
0.458213
0.252400
0.295789
0.387639
0.334626
0.417633
0.146785
0.473610
0.202671
0.585164
0.328834
0.539304
0.304766
0.451548
0.240070
0.363066
0.278551
0.449337
0.046419
0.520394
0.069585
0.470619
0.262945
0.371370
0.227124
0.346935
0.330260
0.312835
0.428970
0.230379
0.505949
0.280458
0.594094
0.301403
0.545381
0.449577
0.478727
3.657358
2.252300
0.700365
0.349621
0.466350
0.317550
0.546418
0.291313
0.450618
0.302487
0.413047
0.399594
0.397243
0.407375
0.315468
0.435192
0.358065
0.593517
0.469867
0.664175
0.407832
0.463068
0.256043
0.445275
0.074559
0.391728
0.092119
0.457377
0.245227
0.282360
0.394013
0.313239
0.405233
0.114634
0.469587
0.162163
0.566612
0.301489
0.537444
0.339363
0.471461
0.260847
0.368852
0.246613
0.454246
0.082328
0.509706
0.105590
0.449174
0.281659
0.400330
0.223882
0.357962
0.293311
0.316727
0.407538
0.262954
0.488458
0.242561
0.575077
0.320196
0.563825
0.469787
0.496804
3.654899
2.248255
0.687049
0.321426
0.444648
0.282117
0.544431
0.325596
0.471028
0.331948
0.438003
0.370796
0.369627
0.428930
0.336600
0.454468
0.379905
0.583916
0.462873
0.660193
0.417205
0.465162
0.263398
0.446258
0.076822
0.394083
0.099997
0.453317
0.241210
0.270873
0.377100
0.293690
0.396812
0.094779
0.471070
0.124194
0.550117
0.265412
0.517374
0.318003
0.493620
0.284731
0.377394
0.218147
0.460787
0.124462
0.501569
0.158335
0.436787
0.234448
0.443818
0.255442
0.389697
0.284003
0.334870
0.385115
0.299306
0.474007
0.205550
0.557972
0.284678
0.569451
0.492007
0.516938
3.652864
2.244894
0.675752
0.296061
0.425530
0.247484
0.525052
0.333152
0.493679
0.363201
0.429073
0.343355
0.343661
0.406241
0.359861
0.475116
0.362278
0.575548
0.457951
0.657449
0.426996
0.467815
0.270971
0.447634
0.079714
0.396670
0.110007
0.449854
0.240395
0.261601
0.361724
0.276389
0.392471
0.094656
0.477811
0.091595
0.535880
0.229740
0.499233
0.284415
0.481496
0.311482
0.389113
0.191583
0.470877
0.171808
0.496615
0.214546
0.434060
0.202521
0.425977
0.302289
0.430167
0.301811
0.365465
0.364358
0.338452
0.462841
0.169984
0.542981
0.249276
0.551021
0.478972
0.516389
3.651229
2.242178
0.666441
0.274183
0.409300
0.214012
0.507534
0.300573
0.484032
0.347151
0.404680
0.317702
0.319819
0.385081
0.375773
0.496951
0.346142
0.568291
0.455011
0.655948
0.437125
0.471025
0.278725
0.449425
0.083209
0.399475
0.115578
0.446960
0.242853
0.254708
0.348279
0.261762
0.392366
0.113535
0.489362
0.071116
0.524060
0.194699
0.483252
0.251579
0.459468
0.340884
0.404546
0.166249
0.486740
0.223753
0.495627
0.270046
0.439715
0.188668
0.403263
0.351689
0.470916
0.335330
0.403170
0.348009
0.329106
0.455141
0.136775
0.530270
0.214100
0.534219
0.458245
0.496591
3.649981
2.240091
0.659143
0.256640
0.396305
0.182412
0.492146
0.268718
0.463180
0.317368
0.382054
0.294421
0.298707
0.365803
0.351462
0.500788
0.331756
0.562106
0.453990
0.655686
0.440855
0.474803
0.286670
0.451655
0.087277
0.400177
0.100980
0.444630
0.248464
0.250349
0.337118
0.250286
0.396459
0.143558
0.505168
0.072919
0.514825
0.160797
0.469695
0.219993
0.439367
0.355791
0.424143
0.143110
0.510499
0.279247
0.499681
0.309463
0.452019
0.191331
0.388958
0.398714
0.507658
0.373654
0.442247
0.338165
0.291283
0.451044
0.107977
0.520018
0.179430
0.519283
0.439279
0.478448
3.649122
2.238636
0.653934
0.244369
0.386892
0.153979
0.479175
0.238112
0.444213
0.288923
0.361669
0.274222
0.281020
0.348843
0.328319
0.492116
0.319455
0.557042
0.454846
0.656644
0.439680
0.479165
0.294844
0.454344
0.091898
0.399360
0.087062
0.442883
0.256927
0.248630
0.328486
0.242414
0.404491
0.178731
0.524604
0.095185
0.508322
0.129075
0.458828
0.190460
0.421584
0.322665
0.448219
0.125922
0.509482
0.314370
0.509603
0.261606
0.469583
0.207121
0.381920
0.406329
0.538647
0.410450
0.478829
0.335705
0.254251
0.450589
0.087881
0.512393
0.145820
0.506458
0.422430
0.462271
3.648668
2.237842
0.650966
0.238256
0.381382
0.131033
0.468915
0.209585
0.427538
0.262490
0.344057
0.257917
0.267479
0.334735
0.306795
0.485040
0.309668
0.553272
0.457584
0.658789
0.439008
0.481070
0.303251
0.455808
0.097041
0.398754
0.074241
0.441775
0.267779
0.249601
0.322454
0.238498
0.415982
0.216142
0.547016
0.127185
0.504665
0.101790
0.450900
0.164287
0.406519
0.289996
0.446040
0.122510
0.481782
0.259646
0.525320
0.213386
0.491513
0.232993
0.381990
0.366197
0.538752
0.442597
0.510708
0.340091
0.219388
0.453698
0.082928
0.507538
0.114476
0.495994
0.408081
0.448387
3.648614
2.237703
0.650245
0.238693
0.379915
0.116861
0.461592
0.184303
0.413541
0.238930
0.329764
0.246330
0.258755
0.323930
0.287417
0.479711
0.302691
0.550806
0.462093
0.662078
0.438859
0.478947
0.311821
0.457007
0.102646
0.398367
0.063266
0.441307
0.280639
0.253174
0.319163
0.238688
0.430509
0.254412
0.565207
0.162861
0.503886
0.083414
0.446080
0.143438
0.394562
0.258461
0.417639
0.138286
0.458819
0.201990
0.545857
0.165529
0.507720
0.267406
0.390098
0.323408
0.501549
0.468886
0.536621
0.350138
0.187901
0.460181
0.095187
0.505518
0.087977
0.488093
0.396583
0.437097
3.648932
2.238172
0.651629
0.245440
0.382432
0.114566
0.457345
0.163907
0.402588
0.219335
0.319319
0.240185
0.255372
0.316752
0.270807
0.476121
0.298654
0.549479
0.444451
0.666460
0.439157
0.477310
0.320526
0.458510
0.101892
0.398183
0.055404
0.441431
0.295229
0.259134
0.318850
0.242906
0.447746
0.292848
0.547576
0.199858
0.505947
0.080146
0.444450
0.130543
0.386088
0.229230
0.392011
0.169278
0.444100
0.144595
0.554641
0.121018
0.478186
0.309153
0.407502
0.282065
0.460103
0.478692
0.555995
0.364634
0.160970
0.469770
0.119115
0.506325
0.071865
0.482905
0.388248
0.428670
3.649604
2.239223
0.655014
0.257852
0.388780
0.124702
0.456282
0.150593
0.395035
0.205051
0.313204
0.239938
0.257556
0.313487
0.257682
0.474329
0.297670
0.549197
0.425796
0.671872
0.439874
0.476176
0.329373
0.460338
0.099549
0.398198
0.052179
0.442118
0.311231
0.267231
0.321578
0.250881
0.467291
0.276280
0.534145
0.237211
0.510769
0.093488
0.446035
0.128106
0.381406
0.203859
0.370508
0.207886
0.439642
0.091980
0.526884
0.090649
0.454900
0.247892
0.433701
0.249408
0.418571
0.438757
0.567995
0.382496
0.140504
0.482151
0.148929
0.509912
0.073383
0.480557
0.383353
0.423356
3.650629
2.240852
0.660369
0.275081
0.398739
0.144672
0.458465
0.146566
0.391202
0.197470
0.311770
0.245632
0.265156
0.314360
0.248797
0.474498
0.299848
0.549986
0.408824
0.678241
0.441056
0.475575
0.338405
0.462517
0.097704
0.398427
0.054422
0.443371
0.322225
0.277209
0.327185
0.262201
0.488658
0.244807
0.525030
0.274452
0.518233
0.117894
0.450807
0.136775
0.380722
0.184261
0.354175
0.248267
0.445250
0.056177
0.508215
0.094865
0.440201
0.196200
0.416824
0.232301
0.381184
0.397349
0.534252
0.402846
0.129020
0.496976
0.181535
0.516198
0.091756
0.481140
0.382119
0.421358
3.652014
2.243075
0.667703
0.296244
0.412033
0.171116
0.463909
0.152867
0.391342
0.197636
0.315190
0.256895
0.277705
0.319491
0.244838
0.476854
0.305261
0.551944
0.393707
0.673472
0.442796
0.475543
0.343761
0.465056
0.096447
0.398891
0.061477
0.445216
0.318539
0.288815
0.335355
0.276388
0.511352
0.217844
0.520177
0.311327
0.528194
0.147990
0.458678
0.154798
0.384118
0.172437
0.343536
0.287775
0.459055
0.067497
0.499386
0.132304
0.435427
0.164775
0.392285
0.233108
0.351523
0.357283
0.498074
0.424857
0.128447
0.513885
0.215495
0.525068
0.119563
0.484707
0.384681
0.422827
3.653744
2.245862
0.676867
0.320430
0.428270
0.201398
0.472497
0.168431
0.395514
0.205656
0.323359
0.273036
0.294552
0.328686
0.246182
0.481369
0.313714
0.534968
0.380630
0.669145
0.445059
0.476084
0.346806
0.467951
0.095826
0.399585
0.071954
0.447614
0.317025
0.301775
0.345926
0.292951
0.516502
0.196571
0.519321
0.299276
0.540460
0.180870
0.469469
0.179374
0.391525
0.169807
0.338589
0.310367
0.478995
0.110984
0.500467
0.183914
0.440440
0.161257
0.382046
0.246387
0.331425
0.321439
0.461472
0.447722
0.138366
0.532555
0.250084
0.536354
0.151669
0.491209
0.391007
0.427773
3.655787
2.249165
0.687636
0.346822
0.447007
0.233859
0.484018
0.190989
0.403611
0.220717
0.335940
0.293216
0.314974
0.341551
0.252828
0.487889
0.324862
0.515139
0.369649
0.659540
0.447753
0.477184
0.349990
0.471206
0.095864
0.400486
0.084605
0.446581
0.317623
0.292027
0.358770
0.311422
0.507971
0.182309
0.517433
0.267327
0.554810
0.215124
0.482929
0.208128
0.402734
0.176562
0.339056
0.278133
0.503285
0.161632
0.510729
0.238697
0.453335
0.179124
0.382726
0.258150
0.319293
0.292470
0.426568
0.431293
0.156115
0.552678
0.284888
0.549841
0.185752
0.500515
0.400920
0.436090
3.657446
2.252950
0.699840
0.374798
0.467834
0.267573
0.498235
0.218394
0.415432
0.241557
0.352464
0.316612
0.338260
0.357666
0.264468
0.496338
0.338395
0.496096
0.360757
0.647101
0.450843
0.478839
0.353302
0.474831
0.096583
0.401587
0.098563
0.439946
0.320309
0.278080
0.373625
0.331383
0.502176
0.176250
0.513338
0.237989
0.571008
0.250063
0.498790
0.239495
0.417436
0.191550
0.344457
0.254241
0.524958
0.213280
0.528688
0.284024
0.467893
0.199013
0.388202
0.253939
0.311186
0.272582
0.395570
0.409358
0.178619
0.540630
0.319650
0.565305
0.220812
0.512463
0.414170
0.447606
3.653813
2.247264
0.687504
0.375690
0.490407
0.302044
0.514920
0.249118
0.430735
0.266920
0.372429
0.342515
0.363782
0.376665
0.280605
0.506761
0.354076
0.477887
0.353973
0.634928
0.454374
0.481058
0.356780
0.478843
0.098014
0.402897
0.113271
0.433872
0.324935
0.265865
0.390115
0.336506
0.499098
0.178630
0.512351
0.212017
0.588829
0.285343
0.516790
0.272535
0.435273
0.212946
0.354167
0.238833
0.523145
0.261749
0.551192
0.306657
0.473974
0.200374
0.390208
0.227192
0.306881
0.262339
0.371123
0.392079
0.203500
0.524774
0.305383
0.582530
0.256404
0.526883
0.430482
0.462121
3.650573
2.241902
0.669375
0.344594
0.469681
0.337003
0.533857
0.282174
0.449245
0.295761
0.395356
0.370374
0.391050
0.398213
0.300661
0.519213
0.371702
0.460657
0.349301
0.623094
0.458405
0.483855
0.360465
0.483228
0.100176
0.404430
0.105555
0.428397
0.331243
0.255550
0.400763
0.316700
0.498556
0.188391
0.514210
0.190294
0.585521
0.320802
0.536694
0.306704
0.455891
0.239026
0.367571
0.231454
0.526772
0.303138
0.573021
0.294152
0.463708
0.177689
0.389254
0.198403
0.318961
0.261538
0.355658
0.379230
0.229183
0.511313
0.271755
0.595273
0.292328
0.543604
0.449576
0.479422
3.647728
2.237181
0.653004
0.315297
0.446800
0.302149
0.554775
0.316803
0.470579
0.327158
0.420748
0.399746
0.402671
0.421868
0.323943
0.533481
0.390929
0.444614
0.346708
0.611719
0.453434
0.487201
0.364319
0.487012
0.103026
0.403028
0.094018
0.423562
0.338898
0.247256
0.389214
0.298774
0.500230
0.203619
0.518556
0.173678
0.567958
0.304623
0.539349
0.341614
0.478920
0.268433
0.384219
0.231656
0.534557
0.333817
0.588071
0.235033
0.441748
0.182924
0.413013
0.251689
0.375463
0.272279
0.351325
0.370070
0.254723
0.500205
0.239323
0.576509
0.328416
0.562403
0.471104
0.499215
3.645251
2.233060
0.638366
0.288113
0.426163
0.265195
0.542799
0.352448
0.494318
0.360379
0.448130
0.375525
0.375172
0.444853
0.349785
0.549302
0.371894
0.429685
0.346026
0.600727
0.445998
0.487925
0.368289
0.488175
0.106500
0.400767
0.084416
0.419337
0.347763
0.241054
0.379704
0.282974
0.504029
0.222735
0.525060
0.163210
0.552333
0.268330
0.518646
0.319575
0.497710
0.300159
0.403694
0.238597
0.544681
0.350287
0.590684
0.126744
0.444589
0.323825
0.518886
0.425032
0.495669
0.301219
0.360460
0.363442
0.279608
0.491443
0.208364
0.559624
0.296308
0.579261
0.494698
0.521174
3.643121
2.229507
0.625461
0.263513
0.408011
0.228684
0.522127
0.334681
0.508390
0.378742
0.428434
0.347327
0.349602
0.418756
0.377664
0.566554
0.351496
0.415812
0.347073
0.590056
0.438925
0.484103
0.372373
0.489611
0.110551
0.398713
0.077468
0.415692
0.357700
0.236992
0.372443
0.269594
0.509850
0.244453
0.533402
0.159662
0.538764
0.232438
0.499957
0.284391
0.472932
0.333495
0.425527
0.250888
0.555001
0.347762
0.577092
0.102488
0.535762
0.581713
0.732099
0.676048
0.677176
0.356821
0.385812
0.357968
0.303631
0.485016
0.179414
0.544745
0.259326
0.558591
0.489619
0.526525
3.641327
2.226505
0.614334
0.242119
0.392606
0.192777
0.503616
0.298999
0.483579
0.344885
0.402170
0.321197
0.326390
0.394357
0.390560
0.579772
0.332747
0.403032
0.349664
0.579710
0.432236
0.480818
0.376601
0.491340
0.115148
0.396870
0.073864
0.412620
0.368506
0.235063
0.367525
0.258913
0.517472
0.267687
0.543243
0.162955
0.527356
0.197095
0.483495
0.250205
0.450361
0.358894
0.449262
0.266928
0.562922
0.317703
0.550159
0.320304
0.741813
0.916216
1.033247
0.959364
0.894450
0.445302
0.429759
0.352363
0.326866
0.480851
0.153321
0.532001
0.222567
0.539844
0.466274
0.504089
3.639867
2.224054
0.605081
0.224640
0.380185
0.157759
0.487519
0.264569
0.461031
0.312656
0.378264
0.297631
0.305984
0.372070
0.363069
0.564617
0.316011
0.391509
0.353607
0.569784
0.426029
0.478102
0.380603
0.493378
0.120257
0.395257
0.073942
0.410140
0.379890
0.235172
0.364855
0.251120
0.526512
0.291470
0.554186
0.171953
0.518168
0.162512