# vtk DataFile Version 2.0
Comment goes here
ASCII
DATASET UNSTRUCTURED_GRID
POINTS 6500 float
47.627109 1.070653 9.907103 
46.207164 1.073788 9.914423 
44.554179 1.077266 9.922602 
42.953717 1.079828 9.928731 
41.506445 1.080228 9.928853 
39.970623 1.080249 9.923684 
38.433119 1.081317 9.915772 
36.902094 1.082770 9.906796 
35.371272 1.082593 9.896707 
33.840186 1.078371 9.884606 
32.315021 1.067843 9.869279 
30.779222 1.051346 9.847294 
29.245734 1.044637 9.796688 
27.735173 1.039335 9.622145 
26.263770 0.996506 9.210986 
24.856166 0.943259 8.628503 
23.503851 0.882580 7.909135 
22.214275 0.808885 7.080445 
20.987686 0.725026 6.187462 
19.777434 0.641704 5.233616 
18.583281 0.553635 4.271531 
17.349677 0.446846 3.339567 
16.030737 0.347755 2.558076 
14.614563 0.282304 2.042835 
13.105205 0.270674 1.937829 
11.666779 0.323302 2.356316 
10.329057 0.399787 3.093413 
9.060903 0.479653 3.987235 
7.860929 0.561646 4.931013 
6.651540 0.658390 5.885106 
5.430868 0.755949 6.803198 
4.170243 0.837782 7.676470 
2.859288 0.911126 8.461139 
1.473497 0.969460 9.095657 
0.016230 1.003613 9.521145 
-1.498650 1.023883 9.731016 
-3.027643 1.041925 9.819145 
-4.556729 1.054052 9.857863 
-6.085987 1.060146 9.867831 
-7.620677 1.068087 9.853640 
-9.148207 1.077801 9.798541 
-10.664967 1.075029 9.656506 
-12.175658 1.048940 9.392278 
-13.670046 1.012427 9.040008 
-15.161689 0.976005 8.704221 
-16.676165 0.943980 8.494953 
-18.207552 0.933582 8.428822 
-19.729565 0.945029 8.442107 
-21.257675 0.949906 8.450239 
-22.735559 0.874720 8.094321 
-24.134031 0.747176 7.468794 
-25.650435 0.710750 7.304001 
-27.130919 0.737143 7.516599 
-28.506695 0.856020 8.201552 
-29.802976 0.997306 9.041375 
-31.251109 1.032850 9.535698 
-32.744729 1.012404 9.767707 
-34.274693 1.013628 9.859401 
-35.814619 1.034041 9.871614 
-37.337261 1.046993 9.877625 
-38.866714 1.056420 9.884639 
-40.399477 1.063305 9.892081 
-41.884085 1.067814 9.899261 
-43.558025 1.071049 9.906270 
47.627109 1.667629 9.799736 
46.207164 1.670620 9.807082 
44.554179 1.673898 9.815296 
42.953717 1.676140 9.821484 
41.506445 1.676053 9.821693 
39.970623 1.675449 9.816636 
38.433119 1.675837 9.808847 
36.902094 1.676564 9.800001 
35.371272 1.675599 9.790054 
33.840186 1.670491 9.778112 
32.315021 1.658901 9.762977 
30.779222 1.640755 9.741288 
29.245734 1.630173 9.691378 
27.735173 1.614379 9.518722 
26.263770 1.549090 9.111603 
24.856166 1.461286 8.535335 
23.503851 1.356618 7.823879 
22.214275 1.232018 7.004344 
20.987686 1.093132 6.121257 
19.777434 0.951892 5.177828 
18.583281 0.806215 4.226104 
17.349677 0.643736 3.304156 
16.030737 0.497246 2.531190 
14.614563 0.401032 2.021482 
13.105205 0.384746 1.917313 
11.666779 0.460738 2.331598 
10.329057 0.580446 3.060922 
9.060903 0.714535 3.944991 
7.860929 0.854010 4.878431 
6.651540 1.008747 5.822094 
5.430868 1.162209 6.730132 
4.170243 1.297471 7.593794 
2.859288 1.418340 8.369916 
1.473497 1.515229 8.997500 
0.016230 1.576143 9.418174 
-1.498650 1.609910 9.625618 
-3.027643 1.632929 9.712852 
-4.556729 1.646696 9.751275 
-6.085987 1.653048 9.761197 
-7.620677 1.660115 9.747163 
-9.148207 1.666759 9.692616 
-10.664967 1.655134 9.552173 
-12.175658 1.608224 9.291690 
-13.670046 1.540899 8.944961 
-15.161689 1.472936 8.614847 
-16.676165 1.418039 8.409693 
-18.207552 1.394767 8.345877 
-19.729565 1.399170 8.360429 
-21.257675 1.399150 8.369442 
-22.735559 1.320258 8.014190 
-24.134031 1.190497 7.389062 
-25.650435 1.155203 7.224066 
-27.130919 1.192736 7.434659 
-28.506695 1.336648 8.115110 
-29.802976 1.511513 8.948894 
-31.251109 1.584762 9.436436 
-32.744729 1.589597 9.663899 
-34.274693 1.601356 9.753698 
-35.814619 1.624902 9.765347 
-37.337261 1.639501 9.771062 
-38.866714 1.649978 9.777887 
-40.399477 1.657460 9.785221 
-41.884085 1.662249 9.792351 
-43.558025 1.665580 9.799343 
47.627109 2.204454 9.670473 
46.207164 2.207316 9.677850 
44.554179 2.210416 9.686108 
42.953717 2.212369 9.692365 
41.506445 2.211843 9.692680 
39.970623 2.210677 9.687758 
38.433119 2.210454 9.680116 
36.902094 2.210528 9.671427 
35.371272 2.208854 9.661651 
33.840186 2.202951 9.649901 
32.315021 2.190406 9.634995 
30.779222 2.170775 9.613664 
29.245734 2.156713 9.564592 
27.735173 2.131483 9.394208 
26.263770 2.045996 8.991953 
24.856166 1.927117 8.423167 
23.503851 1.782893 7.721236 
22.214275 1.612516 6.912724 
20.987686 1.424149 6.041552 
19.777434 1.230825 5.110663 
18.583281 1.033346 4.171413 
17.349677 0.820789 3.261523 
16.030737 0.631674 2.498821 
14.614563 0.507797 1.995774 
13.105205 0.487324 1.892613 
11.666779 0.584326 2.301839 
10.329057 0.742902 3.021804 
9.060903 0.925750 3.894132 
7.860929 1.116917 4.815125 
6.651540 1.323804 5.746231 
5.430868 1.527535 6.642165 
4.170243 1.710842 7.494258 
2.859288 1.874448 8.260089 
1.473497 2.006007 8.879325 
0.016230 2.090986 9.294205 
-1.498650 2.136890 9.498726 
-3.027643 2.164384 9.584882 
-4.556729 2.179626 9.622950 
-6.085987 2.186210 9.632816 
-7.620677 2.192490 9.618972 
-9.148207 2.196374 9.565090 
-10.664967 2.176790 9.426563 
-12.175658 2.111156 9.170589 
-13.670046 2.016123 8.830532 
-15.161689 1.919798 8.507247 
-16.676165 1.844332 8.307045 
-18.207552 1.809484 8.246017 
-19.729565 1.807552 8.262095 
-21.257675 1.803130 8.272167 
-22.735559 1.720904 7.917718 
-24.134031 1.589150 7.293070 
-25.650435 1.554873 7.127829 
-27.130919 1.602425 7.336010 
-28.506695 1.768850 8.011040 
-29.802976 1.973908 8.837553 
-31.251109 2.081064 9.316931 
-32.744729 2.108632 9.538920 
-34.274693 2.129865 9.626438 
-35.814619 2.156229 9.637408 
-37.337261 2.172310 9.642766 
-38.866714 2.183730 9.649364 
-40.399477 2.191749 9.656570 
-41.884085 2.196790 9.663638 
-43.558025 2.200206 9.670610 
47.627109 2.858055 9.503148 
46.207164 2.860760 9.510565 
44.554179 2.863642 9.518878 
42.953717 2.865245 9.525225 
41.506445 2.864185 9.525677 
39.970623 2.862333 9.520930 
38.433119 2.861367 9.513478 
36.902094 2.860646 9.504993 
35.371272 2.858109 9.495438 
33.840186 2.851237 9.483935 
32.315021 2.837528 9.469328 
30.779222 2.816092 9.448459 
29.245734 2.797790 9.400472 
27.735173 2.761072 9.233029 
26.263770 2.650994 8.837069 
24.856166 2.494281 8.277969 
23.503851 2.301895 7.588368 
22.214275 2.075784 6.794124 
20.987686 1.827172 5.938375 
19.777434 1.570436 5.023721 
18.583281 1.309885 4.100617 
17.349677 1.036356 3.206337 
16.030737 0.795345 2.456920 
14.614563 0.637786 1.962495 
13.105205 0.612216 1.860640 
11.666779 0.734799 2.263317 
10.329057 0.940698 2.971167 
9.060903 1.182911 3.828297 
7.860929 1.437014 4.733179 
6.651540 1.707394 5.648030 
5.430868 1.972331 6.528294 
4.170243 2.214135 7.365412 
2.859288 2.429773 8.117923 
1.473497 2.603545 8.726352 
0.016230 2.717823 9.133731 
-1.498650 2.778504 9.334469 
-3.027643 2.811447 9.419230 
-4.556729 2.828485 9.456838 
-6.085987 2.835351 9.466632 
-7.620677 2.840675 9.453032 
-9.148207 2.841197 9.400011 
-10.664967 2.811921 9.263965 
-12.175658 2.723490 9.013827 
-13.670046 2.594724 8.682406 
-15.161689 2.463865 8.367962 
-16.676165 2.363357 8.174172 
-18.207552 2.314415 8.116751 
-19.729565 2.304770 8.134804 
-21.257675 2.294987 8.146249 
-22.735559 2.208704 7.792838 
-24.134031 2.074521 7.168812 
-25.650435 2.041484 7.003253 
-27.130919 2.101234 7.208312 
-28.506695 2.295069 7.876325 
-29.802976 2.536889 8.693427 
-31.251109 2.685327 9.162236 
-32.744729 2.740573 9.377139 
-34.274693 2.773341 9.461704 
-35.814619 2.803137 9.471796 
-37.337261 2.821020 9.476692 
-38.866714 2.833590 9.482996 
-40.399477 2.842262 9.490034 
-41.884085 2.847611 9.497024 
-43.558025 2.851131 9.503969 
47.627109 3.517783 9.310401 
46.207164 3.520330 9.317865 
44.554179 3.522991 9.326242 
42.953717 3.524240 9.332692 
41.506445 3.522641 9.333302 
39.970623 3.520098 9.328757 
38.433119 3.518382 9.321525 
36.902094 3.516859 9.313274 
35.371272 3.513450 9.303973 
33.840186 3.505600 9.292756 
32.315021 3.490717 9.278492 
30.779222 3.467458 9.258156 
29.245734 3.444878 9.211419 
27.735173 3.396564 9.047364 
26.263770 3.261664 8.658656 
24.856166 3.066762 8.110713 
23.503851 2.825763 7.435314 
22.214275 2.543396 6.657507 
20.987686 2.233973 5.819524 
19.777434 1.913230 4.923570 
18.583281 1.589016 4.019066 
17.349677 1.253943 3.142766 
16.030737 0.960551 2.408654 
14.614563 0.768995 1.924162 
13.105205 0.738278 1.823809 
11.666779 0.886681 2.218943 
10.329057 1.140347 2.912837 
9.060903 1.442482 3.752461 
7.860929 1.760111 4.638782 
6.651540 2.094581 5.534909 
5.430868 2.421296 6.397125 
4.170243 2.722145 7.216992 
2.859288 2.990304 7.954158 
1.473497 3.206683 8.550139 
0.016230 3.350536 8.948877 
-1.498650 3.426133 9.145258 
-3.027643 3.464576 9.228412 
-4.556729 3.483427 9.265490 
-6.085987 3.490577 9.275201 
-7.620677 3.494935 9.261884 
-9.148207 3.492065 9.209853 
-10.664967 3.453007 9.076666 
-12.175658 3.341565 8.833251 
-13.670046 3.178748 8.511778 
-15.161689 3.013032 8.207517 
-16.676165 2.887247 8.021112 
-18.207552 2.824079 7.967848 
-19.729565 2.806649 7.988175 
-21.257675 2.791455 8.001201 
-22.735559 2.701076 7.648987 
-24.134031 2.564443 7.025677 
-25.650435 2.532656 6.859752 
-27.130919 2.604719 7.061214 
-28.506695 2.826220 7.721143 
-29.802976 3.105148 8.527404 
-31.251109 3.295254 8.984039 
-32.744729 3.378438 9.190780 
-34.274693 3.422849 9.271943 
-35.814619 3.456108 9.281023 
-37.337261 3.475812 9.285388 
-38.866714 3.489541 9.291354 
-40.399477 3.498873 9.298199 
-41.884085 3.504532 9.305098 
-43.558025 3.508157 9.312012 
47.627109 4.114709 9.088599 
46.207164 4.117113 9.096115 
44.554179 4.119575 9.104567 
42.953717 4.120504 9.111136 
41.506445 4.118417 9.111927 
39.970623 4.115249 9.107615 
38.433119 4.112853 9.100635 
36.902094 4.110604 9.092654 
35.371272 4.106407 9.083645 
33.840186 4.097673 9.072758 
32.315021 4.081727 9.058888 
30.779222 4.056818 9.039165 
29.245734 4.030367 8.993867 
27.735173 3.971561 8.833710 
26.263770 3.814202 8.453347 
24.856166 3.584747 7.918244 
23.503851 3.299762 7.259189 
22.214275 2.966493 6.500295 
[...]
POINT_DATA 6500
SCALARS sample_scalars float 1
LOOKUP_TABLE my_table
3.645121
2.233664
0.639739
0.233676
0.383325
0.126390
0.457342
0.149171
0.387399
0.196817
0.313223
0.255659
0.267934
0.338773
0.263118
0.460920
0.268659
0.586472
0.375278
0.591648
0.452929
0.492707
0.351320
0.529286
0.100348
0.463258
0.051844
0.522543
0.156884
0.347926
0.253032
0.328170
0.290103
0.232430
0.284496
0.236291
0.341057
0.178303
0.407569
0.114974
0.450472
0.077252
0.516795
0.214560
0.642813
0.560109
0.682593
0.596405
0.616337
0.141627
0.700467
0.765689
0.696169
0.409042
0.316537
0.460937
0.182614
0.461892
0.123021
0.509286
0.097780
0.486284
0.386720
0.428357
3.644684
2.233034
0.637863
0.227546
0.379686
0.115113
0.454586
0.141424
0.384562
0.190072
0.307180
0.244798
0.257492
0.334021
0.257096
0.460145
0.270735
0.590217
0.381277
0.594394
0.461112
0.496405
0.356618
0.531035
0.107866
0.466185
0.063748
0.525291
0.155393
0.348850
0.249207
0.325977
0.282572
0.221726
0.271936
0.220110
0.331482
0.162565
0.401751
0.098088
0.450411
0.114762
0.516192
0.196304
0.595731
0.534397
0.653364
0.587473
0.615665
0.196287
0.711024
0.771780
0.713143
0.429292
0.291639
0.460972
0.214879
0.452442
0.085661
0.502964
0.064952
0.481568
0.381424
0.423986
3.644558
2.232784
0.636818
0.231522
0.382167
0.123392
0.456700
0.147753
0.387040
0.196412
0.313197
0.255969
0.268644
0.336353
0.261902
0.456978
0.267458
0.585397
0.376431
0.591365
0.457782
0.493701
0.355016
0.530027
0.102656
0.464861
0.043493
0.523331
0.156321
0.347772
0.253991
0.327763
0.293277
0.231785
0.286243
0.235496
0.340624
0.176687
0.406881
0.113645
0.450440
0.079348
0.549645
0.150159
0.538090
0.547531
0.564178
0.532005
0.632018
0.283023
0.749358
0.797679
0.753176
0.478361
0.268784
0.496023
0.173215
0.462625
0.122775
0.508745
0.093831
0.485446
0.385674
0.427456
3.644867
2.233350
0.639034
0.230288
0.381412
0.120739
0.455970
0.145456
0.385999
0.193298
0.309945
0.250043
0.263029
0.336767
0.259679
0.461657
0.272467
0.593251
0.383694
0.592469
0.466889
0.496361
0.360803
0.531475
0.107956
0.467565
0.046604
0.526534
0.150923
0.349542
0.246602
0.327213
0.284790
0.226074
0.277131
0.225729
0.334710
0.168148
0.403830
0.103995
0.449510
0.088773
0.546543
0.138725
0.504702
0.476970
0.513829
0.468849
0.590944
0.226066
0.744805
0.791188
0.750966
0.484292
0.271797
0.496717
0.188468
0.457776
0.104981
0.505535
0.078849
0.483319
0.383468
0.425783
3.647174
2.237223
0.652843
0.243634
0.389502
0.143111
0.462020
0.162305
0.391943
0.202499
0.313198
0.250834
0.263666
0.350956
0.267105
0.482276
0.291748
0.615255
0.401869
0.594850
0.484238
0.501219
0.371277
0.534125
0.116622
0.472477
0.053182
0.534163
0.137547
0.356945
0.228516
0.332322
0.267190
0.227358
0.265871
0.219929
0.332015
0.170546
0.405954
0.111745
0.451637
0.099043
0.544626
0.137098
0.482906
0.417091
0.483540
0.427177
0.567961
0.185394
0.723717
0.763921
0.726197
0.474860
0.288860
0.500921
0.217189
0.455999
0.102343
0.506445
0.091410
0.486520
0.388393
0.430855
3.649406
2.240945
0.665811
0.259164
0.399474
0.167729
0.469834
0.182189
0.399998
0.216490
0.321549
0.261006
0.273907
0.367417
0.278205
0.500145
0.307441
0.632402
0.415148
0.595455
0.496226
0.503694
0.378578
0.535748
0.120583
0.475680
0.051032
0.539881
0.127145
0.363772
0.215009
0.339030
0.257756
0.236675
0.265430
0.225877
0.336193
0.183349
0.412055
0.129177
0.453346
0.073350
0.546230
0.151524
0.474492
0.350259
0.474084
0.399583
0.548504
0.133853
0.699280
0.740041
0.705120
0.481148
0.312111
0.528467
0.213700
0.463022
0.128475
0.512142
0.119371
0.492801
0.396642
0.438711
3.652008
2.245265
0.680554
0.292299
0.422352
0.217137
0.489473
0.227460
0.422464
0.256639
0.351946
0.302107
0.315078
0.396654
0.307327
0.515872
0.324498
0.641394
0.423110
0.596158
0.499623
0.503281
0.380694
0.535986
0.118948
0.476342
0.050986
0.543061
0.140835
0.373661
0.229758
0.355954
0.282792
0.272818
0.300231
0.266956
0.364150
0.230638
0.434836
0.185027
0.465266
0.054127
0.527334
0.241912
0.514609
0.319588
0.497352
0.419482
0.552085
0.127584
0.674415
0.731002
0.700434
0.468253
0.365130
0.494553
0.189589
0.495027
0.207848
0.534142
0.187381
0.512464
0.420425
0.460418
3.653866
2.248352
0.690924
0.314869
0.438646
0.247669
0.503769
0.256714
0.438934
0.283258
0.372440
0.327177
0.340092
0.415459
0.326809
0.526840
0.338119
0.647146
0.430827
0.598796
0.504490
0.504792
0.383559
0.536820
0.120989
0.477794
0.061839
0.546050
0.153870
0.381309
0.243051
0.368124
0.300578
0.294892
0.321466
0.290742
0.382008
0.258557
0.450345
0.217776
0.476614
0.092208
0.504862
0.301601
0.437998
0.329863
0.427804
0.419294
0.568738
0.165026
0.661453
0.694896
0.664818
0.462012
0.388418
0.467541
0.194546
0.513856
0.245123
0.548206
0.222395
0.525939
0.436728
0.475525
3.656113
2.252080
0.703261
0.340941
0.458149
0.281142
0.521094
0.289260
0.458801
0.313484
0.396494
0.355572
0.368414
0.437268
0.349507
0.539608
0.354299
0.653511
0.439996
0.602709
0.509784
0.506911
0.386566
0.537865
0.123884
0.479485
0.076267
0.549563
0.170254
0.390601
0.260172
0.382775
0.321991
0.319981
0.345915
0.317525
0.403022
0.289466
0.468919
0.253055
0.491302
0.133727
0.485455
0.270689
0.383769
0.365957
0.383214
0.353835
0.560207
0.211535
0.643018
0.645854
0.617681
0.455774
0.361941
0.448233
0.209606
0.535441
0.283648
0.564919
0.259136
0.542178
0.456171
0.493661
3.658768
2.256481
0.717575
0.369891
0.480552
0.316746
0.541224
0.324216
0.481712
0.346457
0.423551
0.386591
0.399361
0.461748
0.374914
0.554191
0.372833
0.661587
0.450633
0.607897
0.515569
0.509660
0.389753
0.539133
0.127623
0.481436
0.092654
0.553631
0.189052
0.401473
0.280335
0.399686
0.346286
0.347478
0.372934
0.346646
0.426763
0.322577
0.490263
0.290034
0.509077
0.175938
0.473327
0.213932
0.352139
0.306700
0.360493
0.309702
0.526899
0.263988
0.618284
0.588211
0.564731
0.444485
0.344184
0.436874
0.231704
0.556113
0.322995
0.584084
0.297048
0.560996
0.478440
0.514569
3.661819
2.261528
0.733672
0.401036
0.505421
0.353765
0.563817
0.360820
0.507211
0.381411
0.453030
0.409637
0.408535
0.480832
0.402466
0.570341
0.393305
0.671322
0.462549
0.614321
0.521761
0.513012
0.393073
0.540610
0.132112
0.483622
0.110103
0.558199
0.203427
0.413750
0.303014
0.418544
0.372967
0.376819
0.402023
0.377560
0.452797
0.357249
0.514005
0.328111
0.529613
0.218249
0.467615
0.169444
0.339176
0.256453
0.356176
0.287416
0.507794
0.250759
0.588656
0.529808
0.515028
0.425350
0.338777
0.431986
0.258283
0.531522
0.322621
0.605434
0.335681
0.582109
0.503121
0.537886
3.665244
2.266227
0.743792
0.411062
0.507686
0.352177
0.562093
0.357900
0.503702
0.370642
0.433018
0.376544
0.376180
0.453278
0.396743
0.577025
0.407477
0.678827
0.467720
0.621721
0.528270
0.516934
0.396478
0.541710
0.137246
0.486015
0.103340
0.553597
0.184143
0.401123
0.292639
0.411076
0.357805
0.356061
0.387447
0.373661
0.453587
0.356228
0.513518
0.339607
0.552551
0.260440
0.467280
0.139101
0.339783
0.224954
0.366661
0.287322
0.502374
0.203650
0.558560
0.481505
0.479651
0.397051
0.342347
0.432468
0.288135
0.509603
0.282078
0.584102
0.320664
0.579904
0.502021
0.535130
3.662129
2.260840
0.727074
0.379415
0.482519
0.314922
0.539493
0.321119
0.478311
0.335831
0.404656
0.345559
0.346197
0.427816
0.369291
0.560522
0.386363
0.668008
0.455496
0.614252
0.529773
0.518905
0.394015
0.540155
0.142953
0.483984
0.086026
0.548978
0.167137
0.389597
0.271692
0.392636
0.333050
0.327538
0.359477
0.342865
0.427446
0.321450
0.489715
0.301319
0.542520
0.302371
0.471355
0.124881
0.348840
0.210218
0.388715
0.307758
0.511197
0.162994
0.534905
0.453880
0.467539
0.362098
0.352575
0.438103
0.320990
0.490617
0.242092
0.564510
0.281778
0.558859
0.477280
0.511877
3.659196
2.256060
0.711986
0.349723
0.459724
0.278963
0.519329
0.285905
0.455514
0.303092
0.379033
0.317333
0.319278
0.404881
0.344008
0.545428
0.366925
0.658787
0.444432
0.607955
0.524622
0.515234
0.391087
0.538795
0.139692
0.481963
0.069939
0.544843
0.153174
0.379561
0.253746
0.376208
0.311205
0.301172
0.333919
0.313915
0.403573
0.288186
0.468287
0.263949
0.520645
0.302646
0.478935
0.125603
0.362662
0.208595
0.420082
0.344647
0.534032
0.146827
0.523690
0.410443
0.426391
0.329366
0.369164
0.449510
0.357118
0.474851
0.203009
0.547348
0.243577
0.540104
0.454920
0.491025
3.656655
2.251925
0.698744
0.322648
0.439751
0.245011
0.501962
0.253034
0.435783
0.273255
0.356784
0.292685
0.296263
0.385026
0.321486
0.532005
0.349574
0.651240
0.434725
0.602890
0.519871
0.512143
0.388299
0.537646
0.135425
0.480178
0.056190
0.541247
0.143040
0.371187
0.239361
0.362116
0.292822
0.277620
0.311339
0.287396
0.382421
0.257100
0.449621
0.228050
0.501389
0.261180
0.489335
0.136490
0.380453
0.217191
0.404831
0.359605
0.553243
0.170085
0.527975
0.339960
0.376977
0.308592
0.392837
0.467577
0.320366
0.462578
0.165465
0.532871
0.206545
0.523934
0.435370
0.472953
3.654520
2.248461
0.687525
0.298951
0.423031
0.214072
0.487708
0.223578
0.419565
0.247381
0.338558
0.272536
0.278057
0.368783
0.302360
0.520481
0.334716
0.645416
0.426543
0.599099
0.515597
0.509664
0.385690
0.536720
0.131884
0.478651
0.046860
0.538233
0.137445
0.364610
0.229067
0.350654
0.278456
0.257631
0.292347
0.264009
0.364448
0.229076
0.434077
0.194451
0.485039
0.220174
0.502465
0.154538
0.403191
0.235827
0.369893
0.303489
0.505523
0.222324
0.546745
0.285617
0.343834
0.305975
0.422827
0.492191
0.282093
0.454011
0.130635
0.521291
0.171439
0.510603
0.419040
0.458006
3.652767
2.245629
0.678287
0.279307
0.409832
0.187362
0.476738
0.198807
0.407160
0.226629
0.324903
0.257778
0.265479
0.356428
0.287161
0.510794
0.322523
0.641356
0.419834
0.596580
0.511716
0.507776
0.383210
0.536001
0.129085
0.477355
0.044640
0.535750
0.136978
0.359837
0.223524
0.341990
0.268817
0.241955
0.277660
0.244570
0.350079
0.205210
0.421912
0.164371
0.471811
0.179447
0.518628
0.179729
0.426975
0.265942
0.341598
0.255374
0.467078
0.286067
0.545341
0.254174
0.327567
0.320063
0.456484
0.522400
0.243925
0.449280
0.100904
0.512718
0.139419
0.500252
0.406207
0.446389
3.651387
2.243414
0.671051
0.264529
0.400437
0.166759
0.469226
0.180512
0.398860
0.212380
0.316325
0.249251
0.259219
0.348247
0.276456
0.502969
0.313226
0.636153
0.414605
0.595332
0.508199
0.506472
0.380837
0.535480
0.127059
0.476278
0.050343
0.533773
0.141656
0.356886
0.223096
0.336285
0.264426
0.231383
0.267961
0.230037
0.339739
0.187010
0.413381
0.139979
0.461937
0.139015
0.538320
0.213190
0.397477
0.309284
0.323264
0.222178
0.440833
0.231770
0.522798
0.248508
0.325292
0.344003
0.489915
0.512613
0.207237
0.448436
0.081605
0.507255
0.112931
0.493024
0.397152
0.438312
3.650384
2.241823
0.665892
0.255430
0.395089
0.154638
0.465307
0.170698
0.394881
0.205895
0.313168
0.247482
0.259601
0.344482
0.270731
0.497109
0.307086
0.631396
0.410916
0.595351
0.505068
0.505757
0.378584
0.535158
0.125847
0.475424
0.061692
0.532309
0.150874
0.355780
0.227700
0.333659
0.265436
0.226555
0.263723
0.221321
0.333765
0.176165
0.408678
0.124564
0.455623
0.099353
0.556490
0.256024
0.367396
0.342743
0.319314
0.212947
0.428812
0.151662
0.513999
0.267813
0.334462
0.372354
0.520040
0.481010
0.174106
0.451402
0.080199
0.504957
0.096476
0.489031
0.392105
0.433940
3.649778
2.240889
0.662963
0.252680
0.393977
0.153068
0.465080
0.170830
0.395342
0.207855
0.315533
0.252492
0.266458
0.345314
0.270305
0.493436
0.304408
0.627700
0.408910
0.596630
0.502426
0.505655
0.376506
0.535046
0.125510
0.474817
0.076096
0.531401
0.163636
0.356553
0.236780
0.334181
0.271537
0.227770
0.265047
0.219037
0.332344
0.174008
0.407919
0.121537
0.453025
0.062586
0.532900
0.307444
0.341313
0.299371
0.333166
0.233014
0.432879
0.089043
0.519552
0.307948
0.353890
0.402421
0.486349
0.454440
0.147577
0.457971
0.097098
0.505834
0.095319
0.488349
0.391224
0.433389
3.649566
2.240606
0.662268
0.256368
0.397058
0.162145
0.468474
0.180685
0.400134
0.217848
0.323169
0.263718
0.279127
0.350596
0.275093
0.491974
0.305228
0.625078
0.408585
0.599131
0.500279
0.506157
0.374608
0.535140
0.126044
0.474455
0.092008
0.531041
0.179050
0.359146
0.249714
0.337765
0.282260
0.234797
0.271726
0.223255
0.335447
0.180679
0.411050
0.131519
0.454181
0.039930
0.510703
0.329524
0.326630
0.272405
0.365053
0.278603
0.454364
0.098507
0.540083
0.364552
0.383887
0.396820
0.439790
0.433845
0.131115
0.467841
0.124691
0.509790
0.109635
0.490927
0.394454
0.436597
3.649721
2.240929
0.663658
0.265976
0.404064
0.179885
0.475268
0.198486
0.408943
0.234581
0.335535
0.280206
0.296658
0.359882
0.284637
0.492542
0.309308
0.623378
0.409788
0.602793
0.498535
0.507220
0.372836
0.533565
0.127378
0.473851
0.103329
0.531164
0.196455
0.363409
0.265949
0.344192
0.297100
0.246958
0.283311
0.233488
0.342847
0.195035
0.417860
0.151643
0.459001
0.054858
0.491622
0.293857
0.329424
0.274625
0.412333
0.326839
0.413073
0.175180
0.575935
0.424182
0.423924
0.361040
0.389681
0.419558
0.127509
0.480666
0.157082
0.516648
0.134157
0.496598
0.401548
0.443340
3.650228
2.241834
0.667026
0.280710
0.414664
0.203763
0.485201
0.222070
0.421380
0.256512
0.351970
0.300897
0.318048
0.372685
0.298321
0.495020
0.316385
0.622523
0.412407
0.607548
0.497149
0.508813
0.365833
0.530930
0.129448
0.469428
0.085647
0.531730
0.215272
0.369201
0.284842
0.353202
0.315390
0.263380
0.299124
0.248860
0.354173
0.215342
0.428066
0.178255
0.467293
0.090322
0.477145
0.271805
0.351160
0.309371
0.408927
0.300784
0.386359
0.272612
0.625264
0.439473
0.439272
0.333591
0.335004
0.411910
0.136939
0.496066
0.191544
0.526194
0.164079
0.505162
0.412183
0.453342
3.651089
2.243319
0.672344
0.299705
0.428504
0.231717
0.497999
0.249623
0.437025
0.282249
0.371783
0.324797
0.342372
0.388552
0.315493
0.499397
0.326228
0.622558
0.416411
0.613331
0.496140
0.507147
0.357951
0.528528
0.124969
0.465264
0.069192
0.524855
0.234991
0.376400
0.305702
0.364523
0.336364
0.283175
0.318368
0.268345
0.368953
0.239927
0.441339
0.208692
0.478778
0.130022
0.468210
0.268820
0.388068
0.368131
0.412928
0.313823
0.394439
0.378404
0.683701
0.476901
0.450217
0.321332
0.275664
0.411177
0.156501
0.513637
0.226853
0.538191
0.196737
0.516397
0.426002
0.466308
3.652316
2.245405
0.679623
0.322147
0.445227
0.262336
0.513385
0.279845
0.455456
0.310697
0.394325
0.351067
0.368855
0.407069
0.335533
0.505724
0.338624
0.623600
0.421812
0.611115
0.483524
0.501759
0.350192
0.526366
0.116707
0.461375
0.054894
0.517267
0.237885
0.384902
0.327893
0.377884
0.359290
0.305552
0.340265
0.290976
0.386682
0.267475
0.457331
0.241350
0.493119
0.170299
0.464968
0.284989
0.434859
0.440277
0.444965
0.364935
0.439580
0.438470
0.745994
0.529724
0.480609
0.329939
0.214618
0.417463
0.182525
0.532980
0.262412
0.552392
0.230811
0.530073
0.442637
0.481932
3.653895
2.248063
0.688714
0.347210
0.464397
0.294588
0.531018
0.311764
0.476221
0.340997
0.419009
0.379053
0.396900
0.427730
0.357818
0.513825
0.353178
0.625569
0.407097
0.604607
0.471327
0.497019
0.342622
0.524456
0.108977
0.457789
0.044531
0.510288
0.231089
0.379451
0.351078
0.392980
0.383730
0.329849
0.364237
0.315964
0.406877
0.297005
0.475663
0.275260
0.509953
0.210272
0.466840
0.315273
0.487595
0.518995
0.499998
0.442247
0.513586
0.501289
0.797925
0.589221
0.524688
0.359395
0.159362
0.430489
0.212114
0.553767
0.297932
0.568537
0.265562
0.545911
0.461667
0.499853
3.655796
2.251244
0.699388
0.374154
0.485556
0.327743
0.550535
0.344674
0.498866
0.372089
0.443287
0.400278
0.396424
0.419257
0.381784
0.523423
0.369437
0.612760
0.389095
0.599322
0.459544
0.492920
0.335237
0.522787
0.101860
0.454498
0.040801
0.503907
0.226921
0.366691
0.344755
0.405971
0.409375
0.355524
0.389822
0.342672
0.429081
0.327804
0.495950
0.309808
0.528918
0.249718
0.473040
0.353999
0.543594
0.600446
0.570910
0.534218
0.604949
0.583811
0.844498
0.647083
0.574670
0.404222
0.126099
0.449402
0.243321
0.543291
0.329114
0.586355
0.300535
0.563606
0.482660
0.519688
3.658003
2.254917
0.711476
0.383586
0.482465
0.313053
0.537826
0.317502
0.476645
0.338855
0.417044
0.373057
0.371200
0.391344
0.376411
0.519726
0.345303
0.595616
0.372161
0.595247
0.448112
0.489440
0.327995
0.521343
0.095417
0.451479
0.045059
0.498086
0.225499
0.355360
0.336362
0.387740
0.403472
0.358125
0.416592
0.370587
0.452873
0.359368
0.512116
0.331456
0.549665
0.288531
0.482786
0.396962
0.586459
0.682404
0.651400
0.633180
0.704095
0.674342
0.890467
0.695579
0.622675
0.456834
0.134881
0.472903
0.274882
0.528439
0.296485
0.586046
0.316994
0.573839
0.490454
0.519954
3.658058
2.252207
0.692178
0.351461
0.458156
0.275195
0.517132
0.281786
0.454209
0.307623
0.393349
0.348403
0.348844
0.365516
0.350398
0.497902
0.320673
0.579174
0.356394
0.592366
0.437045
0.486571
0.320899
0.520118
0.089757
0.448727
0.055200
0.492821
0.226762
0.345538
0.330870
0.371384
0.389820
0.333038
0.404848
0.379535
0.450068
0.331222
0.490027
0.296110
0.537115
0.326639
0.495339
0.441412
0.627967
0.763129
0.736266
0.733549
0.803111
0.763605
0.903146
0.706024
0.649057
0.509259
0.177283
0.499433
0.305924
0.516187
0.265669
0.568589
0.280691
0.554023
0.467037
0.498187
3.654557
2.246601
0.674066
0.321135
0.436213
0.238168
0.498884
0.247636
0.434472
0.278872
0.372532
0.326695
0.329715
0.342127
0.326557
0.477402
0.297572
0.563558
0.341956
0.590647
0.426413
0.484313
0.313986
0.519108
0.085020
0.446250
0.068363
0.488129
0.230459
0.337298
0.328213
0.357077
0.379010
0.310133
0.384545
0.353229
0.427983
0.300796
0.470211
0.262106
0.518345
0.312817
0.510079
0.485744
0.675667
0.832899
0.818426
0.826674
0.890378
0.841791
0.868835
0.622246
0.596207
0.554070
0.230028
0.527358
0.335827
0.506517
0.237088
0.553312
0.245274
0.536383
0.445932
0.478765
3.651453
2.241639
0.657733
0.293001
0.416881
0.202135
0.483227
0.215480
0.417641
0.253136
0.354851
0.308244
0.314069
0.321543
0.305217
0.458470
0.276348
0.548953
0.329048
0.590034
0.416328
0.482665
0.307316
0.518315
0.081354
0.444060
0.082818
0.484036
0.236197
0.330689
0.328138
0.344950
0.370971
0.289696
0.366682
0.328902
0.408166
0.272341
0.452823
0.229746
0.502076
0.284991
0.526570
0.529332
0.726731
0.904487
0.889103
0.901621
0.952026
0.881202
0.723258
0.450252
0.509792
0.584664
0.279492
0.555094
0.322068
0.499291
0.211184
0.540256
0.210874
0.521024
0.427341
0.461851
3.648719
2.237281
0.643149
0.267447
0.400331
0.167246
0.470245
0.185912
0.403878
0.231081
0.340575
0.293418
0.302200
0.304021
0.286700
0.441091
0.257197
0.535272
0.317663
0.590469
0.406729
0.481589
0.300852
0.517718
0.078808
0.442132
0.097805
0.480494
0.243757
0.325679
0.330595
0.335087
0.365819
0.272075
0.351521
0.306867
0.390823
0.246283
0.437997
0.199494
0.488415
0.260326
0.544477
0.571854
0.778536
0.968488
0.939186
0.947169
0.974708
0.781249
0.520364
0.215922
0.414185
0.595267
0.318212
0.560912
0.312436
0.494433
0.188692
0.529456
0.177689
0.508011
0.411423
0.447555
3.646334
2.233495
0.630305
0.245033
0.386757
0.133915
0.460023
0.159966
0.393342
0.213555
0.329966
0.282590
0.294365
0.289852
0.271392
0.425279
0.240381
0.522447
0.307800
0.591892
0.397565
0.481044
0.294562
0.517300
0.077392
0.440441
0.112951
0.477457
0.252909
0.322234
0.335484
0.327567
0.363630
0.257681
0.339351
0.287543
0.376204
0.223259
0.425887
0.172176
0.477481
0.239580
0.563470
0.612957
0.828386
1.012552
0.955460
0.913658
0.862256
0.513283
0.439772
0.266606
0.371804
0.582619
0.340837
0.562212
0.306598
0.491861
0.170656
0.520952
0.146191
0.497419
0.398359
0.436001
3.644292
2.230266
0.619244
0.226456
0.376331
0.103086
0.452615
0.139227
0.386129
0.201414
0.323180
0.275987
0.290640
0.279315
0.259670
0.411136
0.226258
0.510499
0.299508
0.594231
0.388838
0.480999
0.288443
0.515611
0.077096
0.438975
0.128023
0.474902
0.263346
0.320307
0.342555
0.322432
0.364313
0.246887
0.330365
0.271365
0.364517
0.204061
0.416605
0.149054
0.469347
0.223551
0.583229
0.652268
0.873603
1.037297
0.862984
0.775458
0.613340
0.189943
0.639517
0.511988
0.462327
0.514119
0.343636
0.565099
0.303103
0.491415
0.158196
0.514751
0.117298
0.489300
0.388299
0.427281
3.642594
2.227600
0.610061
0.212450
0.369145
0.076895
0.447995
0.125662
0.382211
0.195214
0.320167
0.273551
0.290810
0.272596
0.251790
0.398879
0.215253
0.499576
0.292900
0.597394
0.380630
0.481431
0.281739
0.513562
0.077882
0.435391
0.142831
0.472830
0.274675
0.319830
0.351380
0.319644
0.367535
0.239890
0.324549
0.258670
0.355856
0.189489