# vtk DataFile Version 2.0
Comment goes here
ASCII
DATASET UNSTRUCTURED_GRID
POINTS 6500 float
47.627109 1.050206 9.803619 
46.210520 1.055901 9.816018 
44.560798 1.062336 9.830180 
42.962343 1.067559 9.841877 
41.519514 1.069425 9.843760 
39.986875 1.070155 9.838178 
38.452586 1.071674 9.829565 
36.924803 1.073549 9.818559 
35.397236 1.073702 9.803188 
33.869497 1.069557 9.780579 
32.347926 1.058804 9.747844 
30.815976 1.042561 9.700871 
29.285544 1.036806 9.634675 
27.773219 1.031141 9.489615 
26.289755 0.981276 9.148143 
24.872102 0.926006 8.603107 
23.514719 0.868471 7.901435 
22.224886 0.797975 7.075496 
21.009812 0.715613 6.171367 
19.798850 0.634464 5.216024 
18.597832 0.551439 4.278009 
17.349128 0.449892 3.377767 
16.028346 0.350362 2.597822 
14.622232 0.279701 2.060900 
13.116537 0.267404 1.960750 
11.680393 0.325293 2.378730 
10.336712 0.403521 3.100463 
9.061417 0.480607 3.973903 
7.856134 0.559223 4.904877 
6.649022 0.653848 5.855248 
5.434410 0.751147 6.780674 
4.181682 0.833488 7.662990 
2.870139 0.904517 8.436764 
1.480376 0.958674 9.049843 
0.022850 0.992311 9.467689 
-1.489181 1.018889 9.675854 
-3.015299 1.039385 9.754080 
-4.541510 1.049852 9.782454 
-6.067529 1.054345 9.790449 
-7.598918 1.062129 9.783867 
-9.124412 1.072752 9.753688 
-10.641916 1.073451 9.662747 
-12.153494 1.059490 9.435966 
-13.643607 1.040239 9.079784 
-15.124803 1.011267 8.706557 
-16.631502 0.965908 8.468042 
-18.159432 0.935148 8.424757 
-19.669525 0.924746 8.429609 
-21.128568 0.841717 7.995086 
-22.552829 0.732410 7.414367 
-24.060467 0.708455 7.281710 
-25.564952 0.739320 7.408854 
-26.939157 0.905095 8.060064 
-28.308675 1.057233 8.759503 
-29.779439 1.063553 9.101070 
-31.267455 1.039231 9.446725 
-32.769428 1.015752 9.667116 
-34.297304 1.015911 9.742185 
-35.834204 1.031261 9.762160 
-37.353447 1.040110 9.775380 
-38.879703 1.046581 9.787407 
-40.409104 1.051694 9.797518 
-41.890638 1.055398 9.805126 
-43.561521 1.058493 9.810779 
47.627109 1.644102 9.696806 
46.210520 1.650037 9.709161 
44.560798 1.656715 9.723280 
42.962343 1.662016 9.734962 
41.519514 1.663617 9.736894 
39.986875 1.663833 9.731404 
38.452586 1.664746 9.722900 
36.924803 1.665962 9.712012 
35.397236 1.665374 9.696774 
33.869497 1.660348 9.674325 
32.347926 1.648490 9.641788 
30.815976 1.630660 9.595101 
29.285544 1.621350 9.529543 
27.773219 1.605266 9.386358 
26.289755 1.531956 9.049102 
24.872102 1.441808 8.510339 
23.514719 1.340705 7.816503 
22.224886 1.219816 6.999627 
21.009812 1.083084 6.105276 
19.798850 0.944355 5.160290 
18.597832 0.804211 4.232548 
17.349128 0.647299 3.342263 
16.028346 0.500272 2.570860 
14.622232 0.398127 2.039601 
13.116537 0.380959 1.940327 
11.680393 0.462852 2.353990 
10.336712 0.584555 3.067903 
9.061417 0.715606 3.931638 
7.856134 0.851386 4.852331 
6.649022 1.003593 5.792346 
5.434410 1.156556 6.707761 
4.181682 1.292175 7.580494 
2.870139 1.410474 8.345767 
1.480376 1.502706 8.951998 
0.022850 1.563087 9.365034 
-1.489181 1.604145 9.570595 
-3.015299 1.630015 9.647854 
-4.541510 1.641877 9.675977 
-6.067529 1.646395 9.683968 
-7.598918 1.653308 9.677543 
-9.124412 1.661040 9.647883 
-10.641916 1.653500 9.558424 
-12.153494 1.620695 9.335033 
-13.643607 1.573439 8.983887 
-15.124803 1.514047 8.616132 
-16.631502 1.443501 8.382147 
-18.159432 1.396610 8.341763 
-19.669525 1.377340 8.348210 
-21.128568 1.289249 7.914597 
-22.552829 1.176837 7.334436 
-24.060467 1.151620 7.202006 
-25.564952 1.185086 7.328683 
-26.939157 1.362379 7.977821 
-28.308675 1.538086 8.673021 
-29.779439 1.579748 9.008231 
-31.267455 1.592268 9.347260 
-32.769428 1.593708 9.563169 
-34.297304 1.603995 9.636417 
-35.834204 1.621698 9.655969 
-37.353447 1.631586 9.669002 
-38.879703 1.638661 9.680921 
-40.409104 1.644102 9.690973 
-41.890638 1.647964 9.698552 
-43.561521 1.651130 9.704192 
47.627109 2.178157 9.568210 
46.210520 2.184309 9.580514 
44.560798 2.191206 9.594579 
42.962343 2.196577 9.606245 
41.519514 2.197939 9.608234 
39.986875 2.197693 9.602856 
38.452586 2.198062 9.594483 
36.924803 2.198684 9.583738 
35.397236 2.197430 9.568660 
33.869497 2.191611 9.546401 
32.347926 2.178760 9.514104 
30.815976 2.159504 9.467760 
29.285544 2.146997 9.402972 
27.773219 2.121543 9.262043 
26.289755 2.027151 8.929864 
24.872102 1.905639 8.398653 
23.514719 1.765357 7.714250 
22.224886 1.599152 6.908286 
21.009812 1.413529 6.025708 
19.798850 1.223022 5.093189 
18.597832 1.031514 4.177815 
17.349128 0.824816 3.299519 
16.028346 0.635076 2.538400 
14.622232 0.504620 2.013958 
13.116537 0.483073 1.915739 
11.680393 0.586551 2.324204 
10.336712 0.747347 3.028704 
9.061417 0.926928 3.880754 
7.856134 1.114111 4.789070 
6.649022 1.318099 5.716616 
5.434410 1.521117 6.619978 
4.181682 1.704645 7.481175 
2.870139 1.865452 8.236213 
1.480376 1.991921 8.834200 
0.022850 2.076352 9.241444 
-1.489181 2.130432 9.443870 
-3.015299 2.161135 9.519966 
-4.541510 2.174250 9.547787 
-6.067529 2.178791 9.555772 
-7.598918 2.184920 9.549536 
-9.124412 2.190053 9.520502 
-10.641916 2.175104 9.432827 
-12.153494 2.125353 9.213516 
-13.643607 2.052913 8.868434 
-15.124803 1.966168 8.507265 
-16.631502 1.872972 8.278734 
-18.159432 1.811576 8.241843 
-19.669525 1.784332 8.250210 
-21.128568 1.691688 7.817693 
-22.552829 1.576483 7.238205 
-24.060467 1.550133 7.106048 
-25.564952 1.585937 7.232161 
-26.939157 1.773587 7.878806 
-28.308675 1.970489 8.568903 
-29.779439 2.043932 8.896460 
-31.267455 2.089582 9.227511 
-32.769428 2.113430 9.438025 
-34.297304 2.132824 9.509080 
-35.834204 2.152644 9.528122 
-37.353447 2.163466 9.540930 
-38.879703 2.171084 9.552718 
-40.409104 2.176820 9.562699 
-41.890638 2.180823 9.570244 
-43.561521 2.184054 9.575869 
47.627109 2.828387 9.401748 
46.210520 2.834802 9.413984 
44.560798 2.841965 9.427981 
42.962343 2.847422 9.439625 
41.519514 2.848493 9.441688 
39.986875 2.847684 9.436454 
38.452586 2.847390 9.428251 
36.924803 2.847290 9.417690 
35.397236 2.845225 9.402821 
33.869497 2.838441 9.380809 
32.347926 2.824380 9.348822 
30.815976 2.803388 9.302922 
29.285544 2.786988 9.239131 
27.773219 2.750127 9.101122 
26.289755 2.630065 8.775514 
24.872102 2.470368 8.254079 
23.514719 2.282384 7.581888 
22.224886 2.061006 6.790049 
21.009812 1.815856 5.922710 
19.798850 1.562308 5.006330 
18.597832 1.308263 4.106966 
17.349128 1.040948 3.244188 
16.028346 0.799205 2.496382 
14.622232 0.634279 1.980765 
13.116537 0.607399 1.883910 
11.680393 0.737158 2.285648 
10.336712 0.945553 2.977963 
9.061417 1.184219 3.814886 
7.856134 1.433987 4.707179 
6.649022 1.701019 5.618586 
5.434410 1.964981 6.506346 
4.181682 2.206841 7.352610 
2.870139 2.419401 8.094398 
1.480376 2.587557 8.681713 
0.022850 2.701269 9.081462 
-1.489181 2.771203 9.279829 
-3.015299 2.807789 9.354418 
-4.541510 2.822431 9.381848 
-6.067529 2.827000 9.389826 
-7.598918 2.832174 9.383835 
-9.124412 2.834142 9.355611 
-10.641916 2.810172 9.270245 
-12.153494 2.739790 9.056216 
-13.643607 2.636689 8.718984 
-15.124803 2.516639 8.366341 
-16.631502 2.395866 8.144870 
-18.159432 2.316810 8.112500 
-19.669525 2.279857 8.123352 
-21.128568 2.181669 7.692255 
-22.552829 2.063066 7.113637 
-24.060467 2.035334 6.981833 
-25.564952 2.073986 7.107218 
-26.939157 2.274246 7.750634 
-28.308675 2.496952 8.434125 
-29.779439 2.609091 8.751776 
-31.267455 2.695077 9.072501 
-32.769428 2.746207 9.276030 
-34.297304 2.776690 9.344246 
-35.834204 2.799086 9.362629 
-37.353447 2.811046 9.375146 
-38.879703 2.819325 9.386765 
-40.409104 2.825420 9.396654 
-41.890638 2.829596 9.404154 
-43.561521 2.832906 9.409759 
47.627109 3.484712 9.209996 
46.210520 3.491392 9.222154 
44.560798 3.498825 9.236073 
42.962343 3.504368 9.247691 
41.519514 3.505145 9.249841 
39.986875 3.503769 9.244772 
38.452586 3.502805 9.236764 
36.924803 3.501977 9.226417 
35.397236 3.499092 9.211787 
33.869497 3.491335 9.190059 
32.347926 3.476052 9.158429 
30.815976 3.453307 9.113041 
29.285544 3.432978 9.050398 
27.773219 3.384602 8.915753 
26.289755 3.238631 8.597715 
24.872102 3.040390 8.087541 
23.514719 2.804257 7.429418 
22.224886 2.527189 6.653849 
21.009812 2.221955 5.804064 
19.798850 1.904775 4.906275 
18.597832 1.587606 4.025353 
17.349128 1.259106 3.180450 
16.028346 0.964873 2.447981 
14.622232 0.765153 1.942528 
13.116537 0.732891 1.847247 
11.680393 0.889177 2.241234 
10.336712 1.145616 2.919512 
9.061417 1.443921 3.739011 
7.856134 1.756861 4.612848 
6.649022 2.087529 5.505663 
5.434410 2.413005 6.375451 
4.181682 2.713744 7.204513 
2.870139 2.978543 7.931039 
1.480376 3.188775 8.506061 
0.022850 3.332043 8.897175 
-1.489181 3.417980 9.090866 
-3.015299 3.460505 9.163720 
-4.541510 3.476688 9.190700 
-6.067529 3.481285 9.198670 
-7.598918 3.485496 9.192960 
-9.124412 3.484270 9.165670 
-10.641916 3.451194 9.082964 
-12.153494 3.359988 8.875019 
-13.643607 3.225936 8.546830 
-15.124803 3.072270 8.204008 
-16.631502 2.923662 7.990669 
-18.159432 2.826780 7.963507 
-19.669525 2.780027 7.977222 
-21.128568 2.676244 7.547760 
-22.552829 2.554209 6.970144 
-24.060467 2.525084 6.838748 
-25.564952 2.566610 6.963293 
-26.939157 2.779598 7.602991 
-28.308675 3.028351 8.278871 
-29.779439 3.179548 8.585111 
-31.267455 3.306249 8.893941 
-32.769428 3.384916 9.089425 
-34.297304 3.426591 9.154371 
-35.834204 3.451589 9.171994 
-37.353447 3.464697 9.184175 
-38.879703 3.473644 9.195599 
-40.409104 3.480101 9.205382 
-41.890638 3.484451 9.212832 
-43.561521 3.487840 9.218413 
47.627109 4.078559 8.989337 
46.210520 4.085479 9.001407 
44.560798 4.093156 9.015235 
42.962343 4.098777 9.026824 
41.519514 4.099288 9.029072 
39.986875 4.097398 9.024195 
38.452586 4.095829 9.016412 
36.924803 4.094341 9.006310 
35.397236 4.090716 8.991955 
33.869497 4.082077 8.970555 
32.347926 4.065689 8.939335 
30.815976 4.041359 8.894537 
29.285544 4.017475 8.833214 
27.773219 3.958680 8.702441 
26.289755 3.789266 8.393113 
24.872102 3.556150 7.895898 
23.514719 3.276452 7.253962 
22.224886 2.948995 6.497117 
[...]
POINT_DATA 6500
SCALARS sample_scalars float 1
LOOKUP_TABLE my_table
3.638525
2.226254
0.607760
0.201528
0.381963
0.089021
0.428448
0.143525
0.354753
0.218416
0.287001
0.307281
0.256111
0.318614
0.228332
0.450686
0.256171
0.584352
0.348701
0.569287
0.455948
0.504882
0.389903
0.526851
0.119983
0.462248
0.052488
0.515252
0.179625
0.339523
0.275221
0.314545
0.315357
0.225319
0.311461
0.236237
0.358964
0.165328
0.424354
0.100619
0.476332
0.063681
0.526488
0.252667
0.629040
0.519520
0.702107
0.571092
0.498824
0.600160
0.823817
0.680230
0.138544
0.591942
0.397664
0.417201
0.152214
0.441127
0.135688
0.492566
0.084368
0.491970
0.373683
0.424237
3.637871
2.225334
0.605009
0.192493
0.377562
0.068716
0.425000
0.134069
0.351225
0.211857
0.280210
0.298521
0.245835
0.314097
0.218631
0.447611
0.255317
0.586834
0.353977
0.571796
0.463823
0.508558
0.394565
0.528449
0.125567
0.465176
0.065361
0.518205
0.178017
0.340196
0.271192
0.311744
0.307735
0.212456
0.298752
0.219821
0.350224
0.148738
0.418742
0.079946
0.476064
0.104793
0.544320
0.235514
0.631502
0.488943
0.675378
0.566768
0.523610
0.626260
0.832552
0.685696
0.167837
0.582906
0.372128
0.416977
0.199552
0.432668
0.105806
0.486110
0.038283
0.486738
0.367292
0.419013
3.638003
2.225443
0.604968
0.199351
0.380934
0.085133
0.427801
0.141999
0.354266
0.217761
0.286617
0.307002
0.255800
0.316441
0.227308
0.445926
0.254350
0.582296
0.349366
0.568962
0.460515
0.505943
0.392960
0.527467
0.121393
0.463812
0.044453
0.516204
0.178588
0.339363
0.276197
0.314303
0.318765
0.225359
0.313668
0.235510
0.358352
0.163372
0.423655
0.098741
0.476362
0.065819
0.524559
0.179700
0.570293
0.503190
0.589444
0.493325
0.541785
0.670403
0.864213
0.713273
0.267123
0.593794
0.335829
0.451052
0.157446
0.441360
0.134391
0.491976
0.080315
0.491277
0.372788
0.423480
3.638005
2.225570
0.605953
0.194096
0.378366
0.072607
0.425480
0.134810
0.351210
0.211567
0.280182
0.299044
0.246009
0.315036
0.221608
0.448651
0.257342
0.588978
0.356190
0.569821
0.469407
0.508742
0.398129
0.528820
0.125474
0.466547
0.048572
0.519558
0.173002
0.340704
0.268795
0.313201
0.310286
0.217347
0.303696
0.224107
0.351758
0.151339
0.419573
0.081806
0.474810
0.076343
0.529091
0.165565
0.536177
0.460686
0.541591
0.428737
0.522464
0.663914
0.861794
0.708642
0.295835
0.607097
0.338938
0.448482
0.180911
0.435333
0.113779
0.487414
0.049966
0.487659
0.368416
0.419926
3.639479
2.228212
0.616538
0.198668
0.380936
0.083396
0.427062
0.138246
0.351500
0.208771
0.273896
0.288800
0.232323
0.322411
0.222240
0.466440
0.274346
0.609545
0.374147
0.571694
0.486586
0.514074
0.407897
0.531448
0.132938
0.471644
0.056703
0.527287
0.159123
0.346957
0.250453
0.317240
0.292020
0.212677
0.288315
0.212394
0.345349
0.143277
0.417520
0.071772
0.474602
0.088392
0.531404
0.162975
0.512589
0.399530
0.512952
0.386672
0.510517
0.650515
0.839973
0.683481
0.299935
0.624854
0.357591
0.447049
0.209950
0.428683
0.089789
0.483784
0.007049
0.486020
0.367075
0.419314
3.640998
2.230844
0.626596
0.206569
0.385268
0.100016
0.430097
0.145343
0.353194
0.208830
0.270956
0.283142
0.223643
0.330159
0.229141
0.483314
0.290346
0.626083
0.387526
0.571902
0.498547
0.517169
0.414853
0.533186
0.137089
0.475067
0.055511
0.532934
0.147081
0.352673
0.236573
0.323571
0.281942
0.218049
0.283478
0.211519
0.343928
0.144211
0.418324
0.073757
0.473712
0.061269
0.518607
0.160597
0.494967
0.322869
0.503655
0.362433
0.497498
0.631497
0.820639
0.662595
0.256285
0.650196
0.374507
0.468831
0.198248
0.427858
0.087687
0.483866
0.025436
0.487121
0.369039
0.421368
3.643124
2.234335
0.639040
0.236925
0.402615
0.153539
0.445104
0.183218
0.369346
0.233717
0.289970
0.301106
0.243714
0.347522
0.260655
0.501430
0.312598
0.634117
0.396334
0.572485
0.502126
0.517669
0.417292
0.533824
0.137845
0.476067
0.054440
0.535694
0.154935
0.361571
0.249259
0.341865
0.305287
0.255316
0.313869
0.246860
0.363040
0.183979
0.433718
0.132656
0.482014
0.047665
0.497616
0.221497
0.514409
0.267401
0.529467
0.393413
0.497027
0.609666
0.793803
0.659248
0.187837
0.603233
0.409335
0.486414
0.142166
0.447512
0.153830
0.498735
0.121270
0.501162
0.387378
0.437513
3.644681
2.236931
0.648304
0.258796
0.416097
0.186065
0.457194
0.210292
0.383016
0.253833
0.305491
0.315042
0.259519
0.361290
0.281114
0.512923
0.328080
0.639672
0.404390
0.575016
0.506957
0.519616
0.419894
0.534801
0.140517
0.477637
0.064489
0.538588
0.164179
0.368726
0.260927
0.354739
0.321832
0.277608
0.332535
0.268104
0.376509
0.209516
0.445391
0.166452
0.491191
0.091174
0.497357
0.269121
0.511596
0.264257
0.464475
0.366256
0.506777
0.597707
0.777606
0.627015
0.175466
0.588710
0.428903
0.456950
0.135258
0.460354
0.186161
0.509181
0.158621
0.511571
0.400924
0.449680
3.646588
2.240111
0.659492
0.284340
0.432738
0.220877
0.472322
0.240945
0.400202
0.278133
0.324881
0.332557
0.279258
0.378098
0.304776
0.526262
0.346138
0.647038
0.413949
0.578818
0.512206
0.522190
0.422609
0.536008
0.144029
0.479456
0.078256
0.541996
0.176800
0.377512
0.276237
0.370159
0.341866
0.302855
0.354343
0.292501
0.393067
0.238329
0.459962
0.202138
0.503469
0.134953
0.502623
0.309794
0.454572
0.292930
0.423281
0.296796
0.519366
0.577229
0.754047
0.583391
0.171217
0.584964
0.450629
0.434235
0.140864
0.475825
0.220131
0.522125
0.196150
0.524557
0.417592
0.464777
3.648865
2.243905
0.672617
0.312777
0.452270
0.257187
0.490277
0.274102
0.420550
0.305714
0.347560
0.353169
0.302217
0.397681
0.331016
0.541434
0.366497
0.656155
0.425015
0.583892
0.517940
0.525415
0.425476
0.537457
0.148357
0.481543
0.094171
0.545952
0.192073
0.387869
0.294534
0.387864
0.364733
0.330406
0.378717
0.319366
0.412386
0.269464
0.477223
0.238982
0.518654
0.178469
0.504305
0.246292
0.415949
0.329091
0.402160
0.250516
0.535218
0.547718
0.721781
0.534202
0.173564
0.589880
0.436399
0.418736
0.156204
0.493628
0.255139
0.537422
0.233875
0.539984
0.437089
0.482588
3.651505
2.248296
0.687522
0.343404
0.474343
0.294456
0.510772
0.308984
0.443654
0.335825
0.373001
0.376466
0.327844
0.419647
0.359261
0.558181
0.388702
0.666954
0.437385
0.590201
0.524072
0.529252
0.427984
0.538060
0.153397
0.483872
0.111287
0.550404
0.209483
0.399634
0.315387
0.407520
0.390007
0.359723
0.405253
0.348182
0.434155
0.302268
0.496925
0.276586
0.536513
0.221673
0.497819
0.190701
0.392635
0.271043
0.397485
0.230116
0.556909
0.510769
0.681087
0.489115
0.185649
0.603146
0.432320
0.408930
0.177671
0.513543
0.290875
0.554912
0.271777
0.557676
0.459083
0.502847
3.654496
2.253264
0.704027
0.375649
0.498591
0.332316
0.533490
0.345040
0.469093
0.367844
0.400700
0.402028
0.355628
0.443605
0.373033
0.548070
0.373718
0.662979
0.440933
0.597690
0.530514
0.531891
0.424414
0.536275
0.151861
0.482729
0.107524
0.550642
0.205941
0.396757
0.310047
0.395076
0.374475
0.347922
0.406779
0.378505
0.458038
0.336256
0.518787
0.314672
0.556776
0.264531
0.496829
0.142714
0.381341
0.226761
0.406000
0.236884
0.535784
0.470976
0.634997
0.459667
0.214410
0.625730
0.437574
0.403561
0.203272
0.534102
0.327104
0.574396
0.309784
0.577417
0.483219
0.525254
3.656118
2.255196
0.707315
0.374145
0.493722
0.323007
0.528583
0.341250
0.470567
0.376407
0.415281
0.425187
0.385107
0.457824
0.344101
0.531190
0.351718
0.652788
0.428276
0.592260
0.529970
0.527797
0.420908
0.534708
0.146830
0.480336
0.090447
0.546089
0.189223
0.385096
0.290268
0.376224
0.351385
0.319130
0.380210
0.357090
0.461052
0.343267
0.520413
0.318489
0.570862
0.306987
0.500405
0.103127
0.378887
0.195186
0.425058
0.267162
0.513164
0.435844
0.589890
0.421726
0.263094
0.658949
0.449662
0.402291
0.232380
0.512380
0.305437
0.570564
0.307069
0.575618
0.479385
0.520269
3.653240
2.250484
0.691984
0.342809
0.470442
0.286120
0.506754
0.306004
0.445442
0.344366
0.386653
0.397653
0.360236
0.434223
0.316911
0.515845
0.331639
0.644324
0.416812
0.585733
0.524754
0.524280
0.417479
0.533365
0.142496
0.478170
0.074634
0.541996
0.174884
0.374836
0.273343
0.359476
0.331228
0.292307
0.355836
0.327674
0.436894
0.309406
0.498650
0.280775
0.549352
0.294288
0.507677
0.074797
0.382629
0.174906
0.452919
0.313997
0.497086
0.413017
0.552430
0.353884
0.326025
0.702116
0.467615
0.405711
0.265138
0.492566
0.269369
0.551496
0.269380
0.556266
0.455868
0.498610
3.650711
2.246348
0.678306
0.313204
0.449413
0.250069
0.487205
0.272065
0.422604
0.314041
0.359902
0.371792
0.331212
0.412511
0.292013
0.502303
0.313966
0.637531
0.406751
0.580422
0.519936
0.521385
0.414177
0.532261
0.138966
0.476258
0.061131
0.538421
0.163465
0.366144
0.259717
0.345178
0.314461
0.268061
0.334091
0.299973
0.414696
0.276578
0.478973
0.243496
0.530098
0.252330
0.517969
0.063111
0.391285
0.164652
0.447051
0.299180
0.491229
0.407885
0.528122
0.297562
0.394328
0.730850
0.491370
0.415050
0.301595
0.474873
0.233784
0.534401
0.231759
0.538938
0.434512
0.479135
3.648544
2.242811
0.666452
0.285926
0.431003
0.215339
0.470249
0.240042
0.402471
0.286016
0.335499
0.347987
0.303842
0.393069
0.270045
0.490797
0.299182
0.629852
0.398274
0.576372
0.515592
0.519142
0.411042
0.531408
0.136325
0.474624
0.051771
0.535405
0.155503
0.359156
0.249797
0.333649
0.301513
0.247112
0.315435
0.274487
0.394797
0.245231
0.461666
0.206930
0.513339
0.210760
0.531104
0.072145
0.404933
0.165944
0.414698
0.237389
0.497528
0.421054
0.519684
0.262577
0.437369
0.719427
0.519942
0.431026
0.340817
0.459531
0.198923
0.519480
0.194277
0.523852
0.415673
0.462141
3.646723
2.239847
0.656418
0.261625
0.415506
0.182573
0.456134
0.210733
0.385439
0.261018
0.314011
0.326744
0.278697
0.376175
0.251686
0.481280
0.287534
0.623122
0.391340
0.573587
0.511638
0.517521
0.408022
0.530784
0.134570
0.473236
0.048831
0.532901
0.151618
0.353895
0.244142
0.325087
0.292972
0.230276
0.300485
0.251897
0.377574
0.216000
0.446995
0.171506
0.499279
0.169324
0.547271
0.097965
0.424406
0.181994
0.388441
0.184255
0.515464
0.449055
0.526343
0.253124
0.406746
0.711567
0.550990
0.453359
0.321615
0.446830
0.165255
0.506923
0.157007
0.511190
0.399679
0.447882
3.645244
2.237452
0.648258
0.241199
0.403253
0.153019
0.445128
0.185435
0.371943
0.240027
0.296123
0.308666
0.256533
0.362182
0.237730
0.473783
0.279307
0.617296
0.385964
0.572073
0.508044
0.516508
0.405094
0.530381
0.133703
0.472081
0.053256
0.530887
0.152126
0.350400
0.243072
0.319675
0.289240
0.218450
0.289831
0.233077
0.363444
0.189916
0.435240
0.138156
0.488147
0.127889
0.534150
0.135038
0.450968
0.215247
0.370921
0.152072
0.543056
0.420214
0.546078
0.266876
0.379009
0.706619
0.581159
0.480826
0.283561
0.437053
0.133742
0.496925
0.120205
0.501147
0.386894
0.436631
3.644114
2.235636
0.642071
0.225732
0.394559
0.128939
0.437473
0.166012
0.362391
0.224198
0.282549
0.294374
0.238242
0.351476
0.228954
0.468405
0.274776
0.612417
0.382215
0.571830
0.504833
0.516102
0.402268
0.530194
0.133730
0.471161
0.063410
0.529372
0.156894
0.348706
0.246551
0.317532
0.290401
0.212401
0.283902
0.219003
0.352798
0.168495
0.426658
0.108856
0.480157
0.086566
0.523822
0.181159
0.465520
0.264842
0.365744
0.157334
0.553940
0.406155
0.573624
0.298888
0.351722
0.702747
0.607715
0.511528
0.246342
0.430413
0.106327
0.489654
0.084555
0.493895
0.377657
0.428635
3.643351
2.234430
0.638019
0.216366
0.389698
0.113964
0.433369
0.154748
0.357118
0.214694
0.273928
0.284428
0.224761
0.344460
0.225942
0.465349
0.274196
0.608649
0.380243
0.572852
0.502105
0.516324
0.399600
0.529418
0.134668
0.470501
0.076967
0.528403
0.165344
0.348861
0.254138
0.318704
0.296148
0.212523
0.282831
0.210576
0.345951
0.153730
0.421456
0.087792
0.475484
0.046482
0.517322
0.234459
0.428667
0.326377
0.376003
0.200001
0.535876
0.409648
0.563337
0.344935
0.324400
0.698742
0.573054
0.484935
0.211388
0.427012
0.086865
0.485228
0.052515
0.489567
0.372246
0.424093
3.642954
2.233834
0.636138
0.213844
0.388777
0.111677
0.432882
0.153349
0.356273
0.212307
0.270701
0.279278
0.216980
0.341349
0.228821
0.464625
0.277506
0.606004
0.380045
0.575104
0.499867
0.517157
0.392437
0.526337
0.134621
0.468411
0.092320
0.527973
0.176841
0.350820
0.265363
0.323076
0.306095
0.218674
0.286576
0.208415
0.343105
0.147575
0.419733
0.081461
0.474228
0.021943
0.515387
0.292007
0.395176
0.280888
0.402586
0.265137
0.532256
0.431138
0.567442
0.377919
0.299508
0.694404
0.529219
0.455621
0.180007
0.426872
0.081109
0.483703
0.035394
0.488218
0.370796
0.423082
3.642907
2.233817
0.636330
0.218245
0.391730
0.122492
0.435943
0.161868
0.359807
0.217171
0.273021
0.279202
0.215558
0.342134
0.237229
0.466038
0.284338
0.604326
0.381462
0.578531
0.498029
0.518551
0.383608
0.523541
0.125286
0.463465
0.103074
0.528022
0.190832
0.354458
0.279817
0.330398
0.319865
0.230235
0.294948
0.212664
0.344338
0.150980
0.421486
0.092700
0.476397
0.050541
0.512658
0.289057
0.370764
0.248246
0.444007
0.290573
0.544869
0.469910
0.587065
0.371913
0.283891
0.679748
0.481415
0.431160
0.153569
0.429962
0.091563
0.485079
0.050984
0.489829
0.373287
0.425565
3.643201
2.234364
0.638533
0.229053
0.398397
0.143270
0.442413
0.178735
0.367523
0.228732
0.280704
0.284196
0.220623
0.346721
0.250479
0.469452
0.294281
0.603535
0.384379
0.583071
0.496542
0.512848
0.374877
0.521016
0.116442
0.458807
0.084387
0.528511
0.206741
0.359654
0.296964
0.340370
0.336915
0.246308
0.307507
0.222894
0.349577
0.163257
0.426628
0.116354
0.481904
0.091465
0.498276
0.245781
0.360184
0.248851
0.450163
0.277215
0.574847
0.522553
0.621356
0.391431
0.287852
0.622706
0.428670
0.412040
0.134264
0.436159
0.113713
0.489301
0.082246
0.494331
0.379584
0.431427
3.643840
2.235482
0.642742
0.245355
0.408551
0.170278
0.452094
0.201750
0.379102
0.245955
0.293258
0.293947
0.231694
0.354954
0.267738
0.474819
0.306961
0.603664
0.388752
0.588656
0.493693
0.507062
0.366242
0.518758
0.108179
0.454435
0.066461
0.528680
0.224005
0.366296
0.316178
0.352675
0.356579
0.265921
0.323616
0.238233
0.358595
0.182537
0.434997
0.146380
0.490566
0.133309
0.489017
0.217265
0.365229
0.284405
0.451770
0.307145
0.621268
0.583529
0.666554
0.434367
0.272196
0.569484
0.370765
0.398874
0.124819
0.445246
0.142023
0.496256
0.117094
0.501611
0.389452
0.440484
3.644837
2.237188
0.648989
0.266108
0.421909
0.200947
0.464748
0.228982
0.394151
0.267664
0.310015
0.307930
0.247884
0.366622
0.288189
0.482153
0.322038
0.604824
0.394582
0.593284
0.480979
0.501944
0.357737
0.516770
0.100632
0.450368
0.049930
0.521051
0.242130
0.374286
0.336851
0.367000
0.378188
0.288200
0.342580
0.257658
0.371060
0.206794
0.446373
0.179489
0.502128
0.174672
0.485061
0.209919
0.384316
0.343262
0.479194
0.372966
0.680705
0.647237
0.717353
0.492732
0.227801
0.526799
0.309889
0.392292
0.126926
0.456945
0.173338
0.505790
0.152983
0.511515
0.402584
0.452506
3.646181
2.239466
0.657155
0.290248
0.438100
0.233689
0.480066
0.258969
0.412209
0.292765
0.330272
0.325569
0.268241
0.381336
0.311086
0.491256
0.339047
0.600706
0.385015
0.586344
0.468682
0.497523
0.349429
0.515059
0.093978
0.446632
0.036349
0.514000
0.246537
0.383467
0.358658
0.383018
0.401350
0.312458
0.363886
0.280254
0.386596
0.234399
0.460479
0.214128
0.516301
0.215278
0.485916
0.223425
0.414456
0.414138
0.528745
0.460442
0.748574
0.708561
0.767957
0.557146
0.241883
0.502854
0.250658
0.392731
0.139486
0.470995
0.206196
0.517722
0.189203
0.523847
0.418609
0.467199
3.647853
2.242280
0.667043
0.316846
0.456710
0.267552
0.497700
0.290690
0.432792
0.320339
0.353350
0.346269
0.291866
0.398627
0.335792
0.501839
0.328736
0.582613
0.366515
0.580607
0.456796
0.493785
0.341311
0.513614
0.088345
0.443218
0.029491
0.507518
0.239636
0.374753
0.362941
0.393166
0.425788
0.338149
0.387115
0.305247
0.404796
0.264191
0.477001
0.249512
0.532783
0.255121
0.490901
0.251833
0.452494
0.490382
0.594437
0.559067
0.820121
0.762124
0.812318
0.619091
0.305139
0.503563
0.200565
0.400026
0.159351
0.487127
0.239870
0.531839
0.225456
0.538376
0.437120
0.484236
3.649842
2.245607
0.678507
0.345195
0.477350
0.301988
0.517313
0.323473
0.455448
0.349667
0.378630
0.369439
0.317954
0.418078
0.361796
0.488973
0.302740
0.565241
0.349055
0.576068
0.445259
0.490699
0.333341
0.512414
0.083832
0.440100
0.033304
0.501568
0.235151
0.362988
0.354381
0.375134
0.425744
0.364828
0.411838
0.331993
0.425241
0.295383
0.495615
0.285207
0.551263
0.294186
0.499343
0.288639
0.495722
0.568374
0.670442
0.662492
0.890082
0.797777
0.841843
0.670194
0.388469
0.521547
0.171252
0.413304
0.183383
0.505042
0.273925
0.547907
0.261584
0.554853
0.457720
0.503287
3.652148
2.249448
0.691472
0.374791
0.499681
0.332993
0.533783
0.348171
0.476840
0.380212
0.405583
0.394540
0.345838
0.439358
0.355728
0.467546
0.278157
0.548627
0.332744
0.572720
0.434083
0.488250
0.325522
0.511450
0.080556
0.437271
0.044801
0.496150
0.233138
0.352620
0.348523
0.359058
0.413050
0.345252
0.436698
0.359972
0.447530
0.327455
0.516012
0.320959
0.571440
0.332447
0.510608
0.329222
0.541939
0.645807
0.751633
0.765949
0.948252
0.802249
0.845852
0.701780
0.472052
0.516039
0.172687
0.431133
0.209311
0.524423
0.308083
0.565685
0.297492
0.573039
0.480049
0.524047
3.654777
2.252227
0.690249
0.356481
0.477609
0.296414
0.511964
0.313839
0.452278
0.359811
0.412029
0.421144
0.375029
0.444365
0.330197
0.447527
0.255314
0.532896
0.317756
0.570534
0.423340
0.486430
0.317888
0.510713
0.078614
0.434737
0.059355
0.491284
0.233485
0.343727
0.345307
0.345115
0.403039
0.322346
0.416024
0.381205
0.471332
0.349052
0.519948
0.307520
0.555824
0.306663
0.524148
0.370930
0.588855
0.719787
0.830961
0.861149
0.981582
0.762553
0.770863
0.649025
0.543334
0.541625
0.199085
0.451782
0.235679
0.535317
0.330141
0.579421
0.315730
0.576456
0.476655
0.514801
3.652184
2.246913
0.672934
0.325946
0.455842
0.260550
0.492304
0.280833
0.429940
0.330704
0.385815
0.409739
0.373596
0.419815
0.306683
0.429148
0.234608
0.518230
0.304311
0.569461
0.413140
0.485230
0.310496
0.510190
0.078052
0.432509
0.074884
0.487004
0.235926
0.336366
0.344503
0.333427
0.395605
0.301674
0.397444
0.354042
0.450344
0.316721
0.499358
0.272517
0.538188
0.279632
0.539544
0.412630
0.634146
0.786838
0.899630
0.937366
0.977298
0.565411
0.588394
0.512425
0.546655
0.572572
0.234337
0.473459
0.261632
0.517633
0.297735
0.560961
0.280287
0.558030
0.454534
0.494682
3.649231
2.242175
0.657210
0.297153
0.436339
0.225488
0.474950
0.249458
0.410060
0.303741
0.361748
0.385222
0.345947
0.397096
0.285505
0.412408
0.216331
0.504544
0.292417
0.569448
0.403422
0.484603
0.303310
0.507680
0.078775
0.430558
0.090678
0.483262
0.240346
0.330528
0.346090
0.324086
0.390844
0.283561
0.381200
0.328550
0.428955
0.285622
0.480834
0.238494
0.522876
0.255960
0.556453
0.453742
0.675607
0.843302
0.948497
0.983464
0.868993
0.283987
0.418937
0.333319
0.465837
0.571305
0.265621
0.494485
0.286715
0.501844
0.266357
0.544370
0.245350
0.541565
0.434546
0.476710
3.646619
2.237993
0.643101
0.270526
0.419323
0.191468
0.460082
0.220243
0.392923
0.279438
0.340225
0.362897
0.320251
0.376441
0.267087
0.397332
0.200864
0.491770
0.282094
0.570441
0.394135
0.484502
0.291098
0.505496
0.076798
0.426621
0.106445
0.480016
0.246592
0.326199
0.350006
0.317175
0.388825
0.268407
0.367577
0.305104
0.409747
0.256122
0.464571
0.205803
0.510028
0.236426
0.574548
0.493764
0.711084
0.885329
0.961450
0.948943
0.678690
0.156471
0.443643
0.298089
0.352223
0.552812
0.284706
0.513357
0.310739
0.488071
0.236356
0.529790
0.211067
0.527196
0.416929
0.461071
3.644345
2.234362
0.630681
0.246643
0.405027
0.158941
0.447866
0.193976
0.378807
0.258423
0.321680
0.343149
0.296977
0.358147
0.251885
0.384026
0.188668
0.479929
0.273415
0.572375
0.385281
0.484887
0.279001
0.503624
0.066686
0.421994
0.122008
0.477248
0.254409
0.323359
0.356042
0.312724
0.389458
0.256577
0.356776
0.284135
0.392993
0.228748
0.450757
0.175024
0.499752
0.221814
0.593512
0.532249
0.737108
0.908318
0.870880
0.800663
0.519510
0.528280
0.726819
0.473071
0.245802
0.521473
0.286430
0.528881
0.333782
0.476396
0.208216
0.517348
0.177689
0.515051
0.401929
0.447943
3.642413
2.231292
0.620073
0.226200
0.393637
0.128679
0.438411
0.171712
0.367916
0.241334
0.306489
0.326314
0.276591
0.342547
0.240281
0.372685
0.180206
0.469165
0.266514
0.575160
0.376942
0.485726
0.267126
0.502055
0.057283
0.417775
0.137218
0.474964
0.263423
0.321963
0.363809
0.310665
0.392426
0.248272
0.348817
0.266049
0.378906
0.204161