# vtk DataFile Version 2.0
Comment goes here
ASCII
DATASET UNSTRUCTURED_GRID
POINTS 6500 float
47.627109 1.070916 10.899966 
46.170446 1.074740 10.947802 
44.482764 1.079064 11.004208 
42.860317 1.082601 11.060411 
41.363208 1.084052 11.106651 
39.792469 1.085353 11.159927 
38.220423 1.087922 11.229024 
36.660218 1.090558 11.302225 
35.126356 1.063137 11.028497 
33.692478 1.001849 10.368192 
32.255515 1.027772 10.781758 
30.760753 1.053946 11.219134 
29.282262 1.012189 10.717194 
27.914050 0.965150 9.974921 
26.359491 0.974661 9.902691 
24.907755 0.945368 9.549271 
23.630394 0.848361 8.595662 
22.513525 0.730002 7.461238 
21.326567 0.624609 6.417202 
20.104779 0.532665 5.474896 
18.862522 0.439519 4.517507 
17.588455 0.348437 3.581343 
16.254908 0.268583 2.760575 
14.827054 0.211923 2.178214 
13.277319 0.199426 2.049756 
11.818330 0.244894 2.517091 
10.417239 0.315235 3.240086 
9.077328 0.395623 4.066329 
7.815516 0.485465 4.989755 
6.597757 0.576959 5.929841 
5.416867 0.681886 7.004639 
4.339324 0.795904 8.173447 
3.160698 0.897976 9.242858 
1.830525 0.962486 9.946888 
0.315793 0.997221 10.345808 
-1.205418 1.022764 10.709008 
-2.750451 1.045397 10.977160 
-4.310643 1.059654 11.098520 
-5.873804 1.066632 11.160338 
-7.441877 1.076040 11.216594 
-9.009803 1.089820 11.240542 
-10.551955 1.095334 11.069464 
-12.032699 1.091544 10.630466 
-13.420557 1.018690 9.845600 
-14.708098 0.889772 8.949447 
-16.180763 0.817633 8.400367 
-17.714873 0.792711 8.147725 
-19.260207 0.781338 8.003509 
-20.800085 0.876049 8.207766 
-22.282963 1.065219 8.699758 
-23.826867 1.090256 8.711762 
-25.302213 0.904993 8.168279 
-26.806947 0.774542 7.878358 
-28.332532 0.796479 8.186458 
-29.816988 0.847614 8.712039 
-31.247168 0.905189 9.330880 
-32.620672 0.969478 10.120934 
-34.062286 1.021929 10.728192 
-35.603170 1.049332 10.949852 
-37.159496 1.063312 11.061000 
-38.723575 1.072642 11.140531 
-40.292660 1.079150 11.199410 
-41.811756 1.083190 11.248314 
-43.519083 1.086093 11.300666 
47.627109 1.669284 10.792348 
46.170446 1.673248 10.840160 
44.482764 1.677730 10.896537 
42.860317 1.681397 10.952716 
41.363208 1.682878 10.998951 
39.792469 1.684183 11.052227 
38.220423 1.686824 11.121310 
36.660218 1.689579 11.194490 
35.126356 1.662132 10.920767 
33.692478 1.600403 10.260541 
32.255515 1.625189 10.674312 
30.760753 1.649193 11.112078 
29.282262 1.603600 10.610827 
27.914050 1.547721 9.870144 
26.359491 1.533154 9.802245 
24.907755 1.468347 9.455212 
23.630394 1.331033 8.508852 
22.513525 1.170621 7.381992 
21.326567 1.014286 6.347118 
20.104779 0.865868 5.414969 
18.862522 0.714454 4.468059 
17.588455 0.566398 3.542142 
16.254908 0.436591 2.730358 
14.827054 0.344490 2.154372 
13.277319 0.324174 2.027320 
11.818330 0.398084 2.489540 
10.417239 0.512427 3.204621 
9.077328 0.643100 4.021820 
7.815516 0.789142 4.935138 
6.597757 0.936734 5.865135 
5.416867 1.094311 6.930464 
4.339324 1.253320 8.091180 
3.160698 1.399157 9.152720 
1.830525 1.502898 9.849694 
0.315793 1.567015 10.243329 
-1.205418 1.609494 10.603484 
-2.750451 1.639635 10.870285 
-4.310643 1.656369 10.991200 
-5.873804 1.664134 11.052876 
-7.441877 1.673467 11.109145 
-9.009803 1.685408 11.133424 
-10.551955 1.683702 10.963645 
-12.032699 1.664130 10.527486 
-13.420557 1.570475 9.746361 
-14.708098 1.421100 8.853887 
-16.180763 1.328641 8.308461 
-17.714873 1.288582 8.058541 
-19.260207 1.267752 7.916027 
-20.800085 1.355749 8.121491 
-22.282963 1.539294 8.614495 
-23.826867 1.560576 8.627174 
-25.302213 1.375242 8.083704 
-26.806947 1.252063 7.792475 
-28.332532 1.294708 8.096850 
-29.816988 1.377828 8.616679 
-31.247168 1.467465 9.229754 
-32.620672 1.551899 10.016185 
-34.062286 1.614028 10.621702 
-35.603170 1.645546 10.842622 
-37.159496 1.661666 10.953385 
-38.723575 1.672294 11.032683 
-40.292660 1.679526 11.091431 
-41.811756 1.683946 11.140267 
-43.519083 1.687115 11.192571 
47.627109 2.207361 10.662784 
46.170446 2.211450 10.710565 
44.482764 2.216076 10.766908 
42.860317 2.219859 10.823060 
41.363208 2.221368 10.869288 
39.792469 2.222676 10.922562 
38.220423 2.225382 10.991631 
36.660218 2.228244 11.064784 
35.126356 2.200773 10.791067 
33.692478 2.138648 10.130937 
32.255515 2.162412 10.544954 
30.760753 2.184464 10.983190 
29.282262 2.135422 10.482769 
27.914050 2.071593 9.744001 
26.359491 2.035373 9.681315 
24.907755 1.938631 9.341972 
23.630394 1.765072 8.404340 
22.513525 1.566843 7.286585 
21.326567 1.364699 6.262742 
20.104779 1.165498 5.342821 
18.862522 0.961688 4.408527 
17.588455 0.762397 3.494947 
16.254908 0.587672 2.693979 
14.827054 0.463699 2.125667 
13.277319 0.436353 2.000309 
11.818330 0.535839 2.456369 
10.417239 0.689750 3.161923 
9.077328 0.865641 3.968234 
7.815516 1.062221 4.869384 
6.597757 1.260259 5.787234 
5.416867 1.465181 6.841162 
4.339324 1.664647 7.992136 
3.160698 1.849840 9.044199 
1.830525 1.988860 9.732679 
0.315793 2.079398 10.119952 
-1.205418 2.137105 10.476440 
-2.750451 2.173998 10.741616 
-4.310643 2.192960 10.861994 
-5.873804 2.201432 10.923500 
-7.441877 2.210698 10.979785 
-9.009803 2.220985 11.004462 
-10.551955 2.212787 10.836246 
-12.032699 2.179022 10.403504 
-13.420557 2.066664 9.626883 
-14.708098 1.898892 8.738839 
-16.180763 1.788160 8.197813 
-17.714873 1.734490 7.951171 
-19.260207 1.705156 7.810704 
-20.800085 1.787115 8.017622 
-22.282963 1.965602 8.511844 
-23.826867 1.983507 8.525336 
-25.302213 1.798110 7.981881 
-26.806947 1.681469 7.689078 
-28.332532 1.742736 7.988970 
-29.816988 1.854619 8.501872 
-31.247168 1.973087 9.108005 
-32.620672 2.075635 9.890074 
-34.062286 2.146468 10.493495 
-35.603170 2.181686 10.713525 
-37.159496 2.199731 10.823825 
-38.723575 2.211525 10.902841 
-40.292660 2.219410 10.961432 
-41.811756 2.224172 11.010186 
-43.519083 2.227579 11.062432 
47.627109 2.862486 10.495068 
46.170446 2.866729 10.542810 
44.482764 2.871528 10.599109 
42.860317 2.875453 10.655224 
41.363208 2.876995 10.701443 
39.792469 2.878308 10.754717 
38.220423 2.881093 10.823765 
36.660218 2.884085 10.896885 
35.126356 2.856585 10.623175 
33.692478 2.793977 9.963168 
32.255515 2.816496 10.377504 
30.760753 2.836172 10.816349 
29.282262 2.782931 10.317003 
27.914050 2.709423 9.580712 
26.359491 2.646841 9.524776 
24.907755 2.511217 9.195387 
23.630394 2.293527 8.269052 
22.513525 2.049257 7.163085 
21.326567 1.791338 6.153520 
20.104779 1.530306 5.249428 
18.862522 1.262703 4.331466 
17.588455 1.001033 3.433855 
16.254908 0.771617 2.646888 
14.827054 0.608840 2.088510 
13.277319 0.572934 1.965343 
11.818330 0.703560 2.413432 
10.417239 0.905647 3.106652 
9.077328 1.136593 3.898868 
7.815516 1.394703 4.784266 
6.597757 1.654161 5.686392 
5.416867 1.916727 6.725563 
4.339324 2.165451 7.863927 
3.160698 2.398561 8.903724 
1.830525 2.580533 9.581207 
0.315793 2.703240 9.960245 
-1.205418 2.779489 10.311986 
-2.750451 2.824602 10.575057 
-4.310643 2.846276 10.694741 
-5.873804 2.855610 10.756026 
-7.441877 2.864794 10.812333 
-9.009803 2.873067 10.837525 
-10.551955 2.856964 10.671333 
-12.032699 2.805920 10.243015 
-13.420557 2.670789 9.472224 
-14.708098 2.480618 8.589913 
-16.180763 2.347640 8.054583 
-17.714873 2.277397 7.812183 
-19.260207 2.237708 7.674368 
-20.800085 2.312317 7.883167 
-22.282963 2.484645 8.378966 
-23.826867 2.498439 8.393510 
-25.302213 2.312964 7.850075 
-26.806947 2.204285 7.555234 
-28.332532 2.288223 7.849321 
-29.816988 2.435126 8.353259 
-31.247168 2.588697 8.950405 
-32.620672 2.713301 9.726828 
-34.062286 2.794730 10.327536 
-35.603170 2.834453 10.546412 
-37.159496 2.854841 10.656112 
-38.723575 2.868056 10.734765 
-40.292660 2.876735 10.793153 
-41.811756 2.881913 10.841800 
-43.519083 2.885610 10.893972 
47.627109 3.523753 10.301872 
46.170446 3.528150 10.349569 
44.482764 3.533125 10.405816 
42.860317 3.537193 10.461890 
41.363208 3.538769 10.508099 
39.792469 3.540086 10.561371 
38.220423 3.542950 10.630396 
36.660218 3.546074 10.703478 
35.126356 3.518545 10.429777 
33.692478 3.455450 9.769912 
32.255515 3.476713 10.184615 
30.760753 3.493990 10.624161 
29.282262 3.436511 10.126053 
27.914050 3.353233 9.392617 
26.359491 3.264041 9.344454 
24.907755 3.089171 9.026532 
23.630394 2.826937 8.113211 
22.513525 2.536193 7.020821 
21.326567 2.221976 6.027704 
20.104779 1.898534 5.141846 
18.862522 1.566539 4.242697 
17.588455 1.241905 3.363482 
16.254908 0.957287 2.592643 
14.827054 0.755341 2.045708 
13.277319 0.710796 1.925065 
11.818330 0.872854 2.363971 
10.417239 1.123567 3.042984 
9.077328 1.410084 3.818965 
7.815516 1.730301 4.686218 
6.597757 2.051755 5.570231 
5.416867 2.372505 6.592403 
4.339324 2.670950 7.716241 
3.160698 2.952425 8.741906 
1.830525 3.177753 9.406723 
0.315793 3.332930 9.776275 
-1.205418 3.427894 10.122548 
-2.750451 3.481305 10.383194 
-4.310643 3.505716 10.502079 
-5.873804 3.515920 10.563110 
-7.441877 3.525020 10.619441 
-9.009803 3.531261 10.645227 
-10.551955 3.507179 10.481366 
-12.032699 3.438694 10.058143 
-13.420557 3.280577 9.294068 
-14.708098 3.067798 8.418363 
-16.180763 2.912364 7.889593 
-17.714873 2.825393 7.652081 
-19.260207 2.775253 7.517318 
-20.800085 2.842442 7.728286 
-22.282963 3.008554 8.225901 
-23.826867 3.018198 8.241658 
-25.302213 2.832645 7.698245 
-26.806947 2.732001 7.401056 
-28.332532 2.838825 7.688458 
-29.816988 3.021075 8.182068 
-31.247168 3.210078 8.768862 
-32.620672 3.356944 9.538781 
-34.062286 3.449069 10.136364 
-35.603170 3.493339 10.353912 
-37.159496 3.516092 10.462921 
-38.723575 3.530741 10.541155 
-40.292660 3.540222 10.599309 
-41.811756 3.545819 10.647833 
-43.519083 3.549810 10.699920 
47.627109 4.122072 10.079552 
46.170446 4.126608 10.127198 
44.482764 4.131742 10.183386 
42.860317 4.135939 10.239411 
41.363208 4.137546 10.285609 
39.792469 4.138868 10.338880 
38.220423 4.141803 10.407878 
36.660218 4.145047 10.480915 
35.126356 4.117491 10.207224 
33.692478 4.053955 9.547523 
32.255515 4.074081 9.962648 
30.760753 4.089188 10.403000 
29.282262 4.027874 9.906318 
[...]
POINT_DATA 6500
SCALARS sample_scalars float 1
LOOKUP_TABLE my_table
3.850965
2.547208
1.462388
1.269298
1.298110
1.336502
1.449511
1.473905
1.270476
0.565909
1.020896
1.409044
0.977158
0.661909
0.794874
1.037322
0.887504
0.473399
0.553837
0.379352
0.666961
0.432647
0.545139
0.401833
0.267908
0.443851
0.164287
0.545107
0.128716
0.423560
0.161084
0.599266
0.793595
0.900917
0.940636
0.970180
1.241118
1.267123
1.393841
1.384507
1.478266
1.353755
1.154427
0.981110
0.519247
0.531377
0.350399
0.384923
0.372618
0.828845
0.750053
0.489840
0.271991
0.529537
0.075862
0.480806
0.486130
1.038728
1.129682
1.282707
1.317347
1.415336
1.482835
1.512929
3.851593
2.548847
1.466696
1.272583
1.303355
1.343974
1.459009
1.485971
1.277696
0.549657
1.026450
1.427430
0.987161
0.649361
0.786316
1.033365
0.883639
0.462939
0.545630
0.370007
0.664073
0.430661
0.546192
0.401618
0.266549
0.444035
0.156778
0.542520
0.110015
0.414742
0.137943
0.592155
0.790246
0.903059
0.938218
0.977065
1.252164
1.279575
1.406229
1.397258
1.487914
1.348737
1.151093
0.961684
0.511752
0.511726
0.302577
0.385818
0.374559
0.823402
0.750335
0.490631
0.304121
0.525560
0.091130
0.476115
0.482770
1.030389
1.138041
1.291655
1.327360
1.425692
1.493911
1.525397
3.851846
2.549182
1.467188
1.276758
1.304069
1.340045
1.450216
1.471926
1.277649
0.561485
1.033636
1.404711
0.991327
0.660754
0.791518
1.039748
0.883742
0.467926
0.541473
0.369934
0.666270
0.428009
0.542654
0.400065
0.265384
0.441696
0.157069
0.547690
0.129495
0.417219
0.175114
0.600458
0.805402
0.912440
0.949806
0.983450
1.246123
1.269506
1.394477
1.383782
1.477427
1.345466
1.133639
0.937694
0.456205
0.483299
0.288815
0.318103
0.395583
0.836553
0.769487
0.516758
0.379522
0.506992
0.136783
0.514142
0.464356
1.030402
1.138452
1.288011
1.320605
1.416897
1.482909
1.511298
3.851784
2.549125
1.467158
1.278364
1.304726
1.339402
1.448143
1.468349
1.279382
0.557284
1.033382
1.400024
0.995662
0.656655
0.791081
1.042123
0.882882
0.464238
0.539256
0.366819
0.664620
0.427309
0.542605
0.399859
0.264978
0.441506
0.154420
0.545219
0.117550
0.413548
0.166455
0.601042
0.811193
0.914624
0.952340
0.987510
1.246448
1.268322
1.392506
1.380843
1.474132
1.344705
1.127666
0.919777
0.428720
0.441853
0.276038
0.315510
0.359911
0.856435
0.800865
0.530970
0.376305
0.508599
0.124817
0.504861
0.461006
1.028561
1.140686
1.288631
1.320123
1.415586
1.480831
1.508276
3.857073
2.557414
1.477400
1.282533
1.307227
1.340944
1.448548
1.467690
1.282709
0.569390
1.047684
1.398371
1.002662
0.661104
0.805540
1.055237
0.895416
0.469902
0.551273
0.372960
0.663204
0.433552
0.548614
0.403048
0.267934
0.445990
0.158933
0.538010
0.097713
0.416078
0.153922
0.613101
0.809868
0.916480
0.966457
0.991711
1.248350
1.269331
1.392898
1.380564
1.473265
1.358836
1.134617
0.912878
0.408933
0.412262
0.271681
0.322484
0.340829
0.861711
0.824651
0.541189
0.342502
0.510112
0.100967
0.484923
0.475326
1.041576
1.144170
1.291078
1.321926
1.416751
1.481407
1.508179
3.853908
2.549528
1.461997
1.263690
1.288258
1.321912
1.430290
1.448988
1.264471
0.596345
1.032984
1.379562
0.982520
0.677599
0.829487
1.045875
0.913152
0.482440
0.564122
0.381424
0.663477
0.439827
0.554010
0.406119
0.270991
0.450195
0.165391
0.533579
0.091672
0.422124
0.169647
0.627297
0.788392
0.895250
0.947381
0.970246
1.229621
1.249873
1.374631
1.361482
1.454779
1.342388
1.141612
0.909238
0.359093
0.364803
0.295787
0.319581
0.305930
0.846602
0.814101
0.558123
0.318662
0.506873
0.098710
0.493164
0.485934
1.062826
1.124252
1.272517
1.303080
1.398640
1.463642
1.490246
3.841028
2.529996
1.427628
1.226322
1.251929
1.286914
1.398377
1.417867
1.228274
0.599898
0.989524
1.350057
0.939217
0.713045
0.792024
1.011988
0.881327
0.509336
0.574916
0.392212
0.667503
0.444119
0.556237
0.407889
0.273252
0.452367
0.173971
0.537251
0.121708
0.434161
0.237730
0.583274
0.754018
0.856052
0.906316
0.927068
1.194878
1.215103
1.342853
1.329246
1.424480
1.295945
1.141317
0.877539
0.290126
0.310256
0.348296
0.312223
0.260547
0.830699
0.800730
0.542939
0.312580
0.497224
0.150376
0.489932
0.505305
1.010822
1.084893
1.237085
1.268033
1.365816
1.432281
1.459562
3.831554
2.515194
1.400392
1.198098
1.223771
1.258967
1.371981
1.391076
1.201017
0.561276
0.960442
1.324502
0.909662
0.686106
0.760931
0.990416
0.857069
0.516751
0.578998
0.396729
0.669432
0.445717
0.556907
0.408512
0.274113
0.453099
0.177537
0.539375
0.134240
0.439451
0.239295
0.556973
0.735383
0.829584
0.881650
0.897440
1.168619
1.187507
1.316977
1.302318
1.399159
1.258871
1.086244
0.809524
0.255500
0.294198
0.326780
0.317516
0.251322
0.833375
0.807078
0.541473
0.290768
0.498544
0.151738
0.472880
0.516325
0.975703
1.056020
1.209829
1.240059
1.338962
1.406038
1.433188
3.823230
2.502156
1.376106
1.174324
1.200125
1.235590
1.350032
1.368862
1.178103
0.525863
0.935837
1.303915
0.885054
0.662113
0.733356
0.973361
0.834801
0.497842
0.583696
0.401901
0.671655
0.447566
0.557687
0.409236
0.275109
0.453950
0.181582
0.541812
0.147400
0.445486
0.209369
0.534851
0.724570
0.809232
0.862996
0.873410
1.147169
1.164817
1.295693
1.280191
1.378640
1.226977
1.036361
0.751017
0.245258
0.291582
0.316017
0.317838
0.253446
0.847682
0.825317
0.548540
0.243510
0.502164
0.138957
0.459814
0.532097
0.944937
1.032069
1.187071
1.216557
1.316390
1.383994
1.411047
3.816099
2.490963
1.355035
1.155357
1.181343
1.217126
1.332825
1.350474
1.159861
0.494432
0.916137
1.278373
0.865872
0.641427
0.709800
0.961099
0.814790
0.480558
0.589112
0.407779
0.674173
0.449721
0.558624
0.410088
0.276268
0.454956
0.186130
0.544506
0.160990
0.452286
0.182086
0.517485
0.721876
0.795492
0.850756
0.855497
1.130859
1.147391
1.279296
1.263186
1.363210
1.201247
0.993922
0.706738
0.253100
0.294595
0.308564
0.313559
0.265064
0.872591
0.854779
0.562365
0.207868
0.509298
0.119705
0.450396
0.516027
0.919215
1.013456
1.169145
1.197873
1.298403
1.366430
1.393421
3.810215
2.481718
1.337476
1.141546
1.165419
1.184486
1.283131
1.281540
1.146617
0.467883
0.901746
1.209907
0.852557
0.624395
0.690792
0.953855
0.797341
0.465145
0.595129
0.414278
0.676984
0.452130
0.559677
0.411044
0.277565
0.456086
0.191105
0.547507
0.174971
0.459777
0.158585
0.505414
0.727321
0.788750
0.845213
0.844158
1.119392
1.112784
1.234902
1.203143
1.297860
1.180410
0.960806
0.676589
0.270456
0.298763
0.300442
0.307054
0.286150
0.881831
0.870745
0.581910
0.210265
0.520355
0.107696
0.442909
0.471097
0.899128
1.000572
1.156376
1.170116
1.260065
1.318438
1.332979
3.805499
2.471689
1.302682
1.088493
1.098935
1.117669
1.219915
1.216305
1.099340
0.446705
0.892594
1.145505
0.845029
0.611125
0.676408
0.951489
0.782410
0.451654
0.591032
0.416230
0.677840
0.452853
0.559990
0.411330
0.277954
0.456423
0.192590
0.548431
0.179036
0.452684
0.140585
0.498726
0.692694
0.745155
0.846171
0.825737
1.056239
1.045269
1.172342
1.136941
1.235981
1.105703
0.937140
0.658880
0.291072
0.302282
0.290365
0.301790
0.316770
0.875633
0.869108
0.607133
0.257139
0.516566
0.121535
0.435982
0.431085
0.884658
0.956618
1.093418
1.103442
1.196409
1.256260
1.270035
3.790155
2.442819
1.245362
1.025923
1.035841
1.054421
1.160665
1.155168
1.039261
0.431323
0.868287
1.085643
0.794335
0.601687
0.666648
0.910010
0.769932
0.440138
0.584420
0.409603
0.674945
0.450406
0.558932
0.410362
0.276636
0.455282
0.187530
0.545310
0.164924
0.445262
0.130206
0.497339
0.648048
0.682401
0.808555
0.757853
0.996930
0.981483
1.113851
1.074822
1.178672
1.035890
0.922503
0.651667
0.311312
0.305472
0.278426
0.301293
0.355358
0.875133
0.873370
0.638295
0.270348
0.519006
0.164690
0.428957
0.395762
0.875705
0.891122
1.032491
1.040183
1.136412
1.197882
1.210972
3.773420
2.416126
1.190605
0.967048
0.976587
0.995209
1.105816
1.098592
0.982924
0.422165
0.809144
1.030867
0.731809
0.596149
0.661561
0.868462
0.759954
0.430716
0.578330
0.403530
0.672342
0.448168
0.557954
0.409476
0.275433
0.454234
0.182846
0.542534
0.151210
0.438530
0.129015
0.488050
0.611230
0.624041
0.759838
0.693343
0.941976
0.921967
1.059890
1.017304
1.126414
0.971465
0.859561
0.627707
0.330237
0.310520
0.265051
0.307953
0.399236
0.879223
0.882167
0.674180
0.265798
0.538140
0.224038
0.421891
0.365278
0.832363
0.829214
0.975504
0.980787
1.080481
1.143688
1.156182
3.758176
2.391679
1.138771
0.912522
0.921847
0.940723
1.055984
1.047242
0.930944
0.419547
0.753490
0.981923
0.672898
0.594542
0.643567
0.831712
0.723201
0.423544
0.572888
0.398107
0.670035
0.446196
0.557100
0.408698
0.274372
0.453315
0.178620
0.540057
0.137955
0.432565
0.136840
0.438603
0.583518
0.571273
0.717136
0.633116
0.892091
0.867506
1.011102
0.965121
1.079851
0.913161
0.792372
0.575033
0.325247
0.319688
0.251327
0.322227
0.395167
0.886561
0.893864
0.711821
0.274236
0.548558
0.289282
0.415801
0.340267
0.774509
0.771667
0.923115
0.925924
1.029215
1.094238
1.106235
3.744477
2.369610
1.090416
0.863242
0.872547
0.891903
1.011975
1.001987
0.884155
0.423415
0.702197
0.939751
0.618652
0.596774
0.588298
0.800409
0.678485
0.418715
0.568193
0.393410
0.668023
0.444532
0.556403
0.408048
0.273475
0.452552
0.174921
0.537841
0.125230
0.427425
0.151884
0.391728
0.566037
0.525724
0.681500
0.578504
0.848197
0.819152
0.968318
0.919236
1.039789
0.861958
0.732550
0.530315
0.307105
0.334404
0.238656
0.342632
0.370786
0.895345
0.906298
0.746991
0.291306
0.534443
0.353843
0.412407
0.321753
0.720721
0.719570
0.876209
0.876521
0.983418
1.050276
1.061891
3.732337
2.349979
1.046010
0.820051
0.829548
0.849617
0.974478
0.955760
0.843309
0.433057
0.656139
0.892218
0.570206
0.602533
0.535453
0.775075
0.635459
0.416108
0.564111
0.389365
0.666308
0.443107
0.555805
0.407493
0.272708
0.451900
0.171708
0.535954
0.113300
0.423066
0.172051
0.348272
0.559393
0.489130
0.653840
0.530998
0.811120
0.777897
0.932243
0.880504
1.000159
0.818742
0.680930
0.491705
0.287848
0.355087
0.228619
0.366946
0.349256
0.897648
0.895596
0.751426
0.309142
0.526997
0.412728
0.412992
0.310477
0.671711
0.674024
0.835589
0.833436
0.943790
1.012429
1.023791
3.721683
2.332701
1.005719
0.783459
0.793367
0.814365
0.916132
0.859841
0.808836
0.437605
0.615980
0.798168
0.528542
0.611498
0.485368
0.755955
0.594194
0.415624
0.560593
0.385957
0.664894
0.441896
0.555284
0.407018
0.272058
0.451339
0.168983
0.534432
0.102505
0.419484
0.195521
0.309156
0.563455
0.462928
0.634713
0.491959
0.781326
0.744359
0.894594
0.804377
0.913638
0.784030
0.638024
0.457583
0.265536
0.380928
0.223363
0.393464
0.330287
0.851235
0.847330
0.729478
0.322150
0.524185
0.408765
0.418006
0.306875
0.628099
0.635851
0.801718
0.797178
0.910670
0.960689
0.945073
3.712455
2.317708
0.969754
0.753982
0.753108
0.734891
0.830835
0.766559
0.781162
0.382668
0.582481
0.707397
0.494806
0.622093
0.438590
0.743204
0.554845
0.417180
0.557674
0.383222
0.663784
0.440911
0.554849
0.406630
0.271531
0.450877
0.166784
0.533269
0.093236
0.416705
0.220949
0.275728
0.577513
0.448299
0.624457
0.462878
0.759220
0.672299
0.812282
0.709611
0.831762
0.692291
0.604580
0.426937
0.239286
0.410039
0.224951
0.372528
0.313569
0.803295
0.795940
0.703781
0.327785
0.522961
0.400501
0.426978
0.310738
0.590666
0.605910
0.775039
0.737479
0.828035
0.877862
0.859200
3.704631
2.304990
0.938475
0.692187
0.664552
0.643102
0.749841
0.676643
0.744906
0.328758
0.556519
0.620922
0.470280
0.628524
0.396040
0.736897
0.517769
0.420730
0.555509
0.381268
0.662980
0.440225
0.554556
0.406362
0.271162
0.450560
0.165203
0.532399
0.085858
0.414803
0.247361
0.249856
0.574660
0.428625
0.618585
0.445194
0.695417
0.579283
0.734669
0.617509
0.755703
0.596831
0.581639
0.399786
0.211348
0.409447
0.233984
0.348428
0.299569
0.753933
0.741455
0.673889
0.325660
0.521167
0.390943
0.438954
0.321162
0.560369
0.585080
0.703620
0.646751
0.745933
0.799398
0.777556
3.698203
2.291561
0.869227
0.610706
0.578915
0.553943
0.674455
0.591329
0.672197
0.276150
0.538861
0.540422
0.456018
0.606644
0.358971
0.736935
0.483470
0.426117
0.554113
0.380112
0.662481
0.439843
0.554409
0.406217
0.270955
0.450393
0.164260
0.531818
0.080869
0.413783
0.274221
0.233577
0.552171
0.349910
0.604760
0.439760
0.625877
0.488483
0.663141
0.529114
0.687105
0.504085
0.570282
0.377800
0.187481
0.378385
0.249350
0.326806
0.289703
0.703983
0.684750
0.640437
0.317412
0.517651
0.377688
0.453147
0.336795
0.538101
0.502722
0.627263
0.558508
0.668586
0.726495
0.701385
3.688461
2.266788
0.800573
0.533868
0.497454
0.468637
0.606541
0.512627
0.605374
0.225018
0.529808
0.468567
0.452329
0.578109
0.328683
0.708681
0.452345
0.433080
0.553353
0.379673
0.662289
0.439701
0.554357
0.406163
0.270878
0.450331
0.163901
0.531588
0.078849
0.413588
0.301266
0.228237
0.541964
0.276189
0.598485
0.360790
0.563822
0.401001
0.599613
0.446270
0.628136
0.415406
0.540546
0.363672
0.174430
0.349473
0.268843
0.309285
0.286469
0.655352
0.627996
0.605642
0.307390
0.512406
0.358869
0.468937
0.356415
0.524374
0.418805
0.556852
0.473866
0.597634
0.660805
0.632464
3.675354
2.245195
0.736492
0.463307
0.421825
0.388857
0.548238
0.443239
0.546026
0.175432
0.529078
0.408970
0.409413
0.552135
0.306306
0.681277
0.424582
0.441395
0.553175
0.379917
0.662403
0.439773
0.554378
0.406189
0.270918
0.450360
0.164102
0.531737
0.080079
0.414186
0.301616
0.233738
0.544098
0.211245
0.547756
0.282790
0.511314
0.318472
0.546227
0.371711
0.581072
0.333361
0.476747
0.359455
0.176730
0.325491
0.290882
0.298022
0.292958
0.611476
0.575375
0.574366
0.300516
0.506871
0.333183
0.485851
0.324562
0.519218
0.338707
0.494272
0.394310
0.534997
0.604117
0.572801
3.664144
2.226709
0.677721
0.401300
0.354541
0.317351
0.501948
0.386895
0.496016
0.127869
0.492796
0.366262
0.351768
0.528880
0.292916
0.645467
0.400506
0.426334
0.553640
0.380884
0.662824
0.440089
0.554497
0.406308
0.271090
0.450497
0.164892
0.532233
0.084358
0.415594
0.294508
0.248651
0.534093
0.163638
0.503390
0.210995
0.470655
0.244092
0.505280
0.309876
0.548062
0.263193
0.425076
0.365616
0.192979
0.307992
0.314888
0.294861
0.310790
0.577979
0.480276
0.552115
0.261658
0.502924
0.301256
0.503545
0.274497
0.519600
0.264390
0.441894
0.322237
0.482965
0.558331
0.524627
3.654778
2.211286
0.625298
0.351391
0.300025
0.259527
0.470354
0.348709
0.457658
0.083889
0.452136
0.345446
0.305057
0.508553
0.289093
0.587950
0.380538
0.409725
0.554885
0.382663
0.663551
0.440718
0.554769
0.406554
0.271426
0.450788
0.166332
0.533011
0.091145
0.417854
0.290734
0.270764
0.500168
0.148655
0.468297
0.152188
0.444275
0.185711
0.479121
0.268094
0.530895
0.215584
0.391008
0.350608
0.218211
0.297737
0.340561
0.300483
0.339130
0.501687
0.356245
0.542596
0.210023
0.501947
0.264936
0.505789
0.227445
0.476064
0.200616
0.402812
0.262427
0.444402
0.525537
0.490487
3.647209
2.198887
0.580530
0.318228
0.264889
0.224464
0.455644
0.333689
0.433273
0.049782
0.422348
0.349159
0.273788
0.491340
0.294524
0.533706
0.365103
0.394879
0.556860
0.385212
0.664583
0.441635
0.555174
0.406916
0.271917
0.451218
0.168385
0.534093
0.099973
0.420929
0.290025
0.289842
0.474897
0.172884
0.444064
0.123311
0.433918
0.159260
0.469371
0.254726
0.530274
0.205202
0.379397
0.297523
0.248374
0.294973
0.367680
0.314045
0.338840
0.431310
0.236835
0.529844
0.188288
0.504458
0.226268
0.488325
0.185479
0.443492
0.158306
0.380200
0.223256
0.422121
0.507500
0.472588
3.641384
2.189449
0.544823
0.305981
0.255589
0.221217
0.458451
0.343486
0.424340
0.047325
0.404978
0.375300
0.262084
0.477248
0.307883
0.483606
0.348402
0.381817
0.559429
0.388438
0.665920
0.442779
0.555665
0.407365
0.272532
0.451748
0.170969
0.535534
0.110439
0.424742
0.292156
0.277109
0.459184
0.222035
0.431755
0.140745
0.439710
0.176904
0.476065
0.272210
0.545326
0.235049
0.391540
0.263695
0.280905
0.299133
0.386878
0.333143
0.339039
0.389438
0.144685
0.517338
0.203184
0.509815
0.187490
0.474491
0.152562
0.423806
0.153354
0.375928
0.214291
0.417707
0.504938
0.471823
3.637204
2.182826
0.519245
0.315550
0.272924
0.248935
0.477324
0.329976
0.430717
0.076886
0.400631
0.402590
0.270933
0.466202
0.327400
0.438456
0.302160
0.370530
0.562549
0.392300
0.667559
0.444133
0.556230
0.407891
0.273261
0.452367
0.174043
0.537343
0.122130
0.429250
0.296952
0.274744
0.453315
0.281905
0.431492
0.189918
0.459961
0.226350
0.497461
0.313681
0.542368
0.291176
0.424193
0.254938
0.314308
0.308897
0.397624
0.351739
0.355277
0.383980
0.140850
0.527278
0.242922
0.515138
0.151074
0.464509
0.134852
0.418084
0.186194
0.389332
0.236816
0.430496
0.517042
0.487142
3.634568
2.178859
0.504499
0.343758
0.310928
0.297422
0.509431
0.329155
0.450744
0.114479
0.408820
0.418854
0.297228
0.458149
0.323001
0.399215
0.259131
0.361046
0.566297
0.396836
0.669495
0.445739
0.556905
0.408518
0.274126
0.453103
0.177623
0.539473
0.134665
0.434455
0.304071
0.282325
0.456978
0.345858
0.442482
0.251315
0.491933
0.290127
0.530804
0.369712
0.550278
0.360043
0.471950
0.271548
0.347657
0.322181
0.413449
0.360974
0.382233
0.410781
0.216242
0.553807
0.262634
0.518504
0.119994
0.458193
0.137098
0.426154
0.240041
0.417583
0.281666
0.457935
0.541859
0.499063
3.633383
2.177394
0.500777
0.385352
0.361843
0.356937
0.544568
0.359813
0.481795
0.152972
0.427977
0.457975
0.335767
0.452982
0.310790
0.367131
0.220460
0.353375
0.570778
0.402102
0.671727
0.447652
0.557734
0.409272
0.275155
0.453994
0.181736
0.541865
0.147780
0.440378
0.313033
0.298437
0.469309
0.410994
0.463161
0.316599
0.532632
0.359312
0.573107
0.404260
0.577053
0.434370
0.529626
0.307254
0.380094
0.335862
0.430908
0.354130
0.409573
0.453447
0.297938
0.557117
0.178483
0.516267
0.097131
0.454922
0.156643
0.446471
0.302454
0.456915
0.338684
0.496592
0.576853
0.511831
3.633552
2.178264
0.507537
0.435319
0.419713
0.421498
0.574999
0.413626
0.520923
0.190578
0.455787
0.513603
0.381678
0.450514
0.309010
0.343576
0.188016
0.347482
0.575893
0.408020
0.674257
0.449828
0.558684
0.410134
0.276324
0.455013
0.186313
0.544563
0.161391
0.446956
0.323270
0.321044
0.488975
0.475768
0.491467
0.382466
0.579269
0.429957
0.621585
0.452864
0.619291
0.498969
0.593157
0.354232
0.410791
0.346341
0.409814
0.334824
0.343950
0.491757
0.356108
0.518742
0.047532
0.505923
0.085429
0.453703
0.185945
0.476487
0.367702
0.503678
0.401359
0.543037
0.613008
0.543125
3.634958
2.181263
0.523496
0.489900
0.480760
0.487798
0.618897
0.481501
0.565429
0.226884
0.489768
0.579800
0.431401
0.450441
0.316809
0.329592
0.164334
0.343252
0.580712
0.414490
0.677078
0.452207
0.559709
0.411074
0.277606
0.456121
0.191267
0.547611
0.175426
0.449291
0.334541
0.348062
0.514405
0.539255
0.525262
0.447364
0.629533
0.500141
0.673918
0.514791
0.673045
0.563772
0.659686
0.407191
0.438999
0.350309
0.363800
0.335360
0.243300
0.512393
0.379416
0.483310
0.130591
0.489996
0.089266
0.453296
0.219010
0.513360
0.433147
0.554906
0.466087
0.594380
0.650257
0.568230
3.637484
2.186185
0.547021
0.546787
0.542949
0.554230
0.672463
0.556851
0.613341
0.261749
0.527956
0.652049
0.482890
0.452460
0.332637
0.325468
0.152094
0.340571
0.573600
0.416007
0.677744
0.452769
0.559953
0.411297
0.277909
0.456384
0.192421
0.548328
0.178582
0.441716
0.346641
0.377964
0.544166
0.601148
0.562854
0.510776
0.681877
0.569086
0.728509
0.584441
0.734635
0.636146
0.727565
0.462961
0.463952
0.345544
0.295593
0.416766
0.258004
0.417833
0.275268
0.506332
0.349930
0.477122
0.114113
0.452337
0.252254
0.554711
0.497736
0.608634
0.531119
0.648614
0.697562
0.600118
3.641023
2.192834
0.576471
0.604574
0.605142
0.619951
0.732696
0.635960
0.663254
0.295021
0.568881
0.727619
0.534952
0.456263
0.354727
0.330712
0.152790
0.339317
0.567000
0.409357
0.674859
0.450296
0.558870
0.410315
0.276579
0.455223
0.187343
0.545253
0.164523
0.434762
0.359292
0.409664
0.577056
0.661321
0.602957
0.572501
0.735239
0.636430
0.784245
0.658371
0.801402
0.712795
0.795791
0.519552
0.483276
0.333216
0.232156
0.604648
0.479982
0.385856
0.130021
0.632404
0.608491
0.482611
0.162501
0.449554
0.283485
0.598678
0.560995
0.663564
0.595549
0.704368
0.752179
0.643367
3.645462
2.201005
0.610267
0.662222
0.666507
0.684320
0.797334
0.716701
0.714029
0.326444
0.611310
0.804790
0.586685
0.461513
0.381269
0.344105
0.165136
0.339348
0.561045
0.403330
0.672268
0.448084
0.557910
0.409441
0.275389
0.454191
0.182692
0.542474
0.150823
0.428499
0.372104
0.442255
0.612005
0.719544
0.644468
0.632264
0.788723
0.701811