# vtk DataFile Version 2.0
Comment goes here
ASCII
DATASET UNSTRUCTURED_GRID
POINTS 6500 float
47.627109 1.045205 9.848847 
46.213699 1.050673 9.862424 
44.567081 1.056919 9.877418 
42.970530 1.062273 9.888268 
41.531918 1.064753 9.889495 
40.002333 1.066008 9.883242 
38.471138 1.067573 9.872152 
36.946477 1.069229 9.857471 
35.422022 1.069059 9.838945 
33.897385 1.064360 9.814799 
32.378912 1.052667 9.782730 
30.849963 1.034947 9.740933 
29.322062 1.028818 9.687574 
27.810047 1.030127 9.562122 
26.326941 0.993304 9.240008 
24.906445 0.943293 8.719935 
23.559333 0.880622 8.005138 
22.289479 0.801918 7.142162 
21.083150 0.716718 6.230030 
19.869287 0.635257 5.293520 
18.660186 0.552424 4.370698 
17.421211 0.449648 3.457009 
16.111171 0.351011 2.668611 
14.708901 0.283555 2.139835 
13.202118 0.268743 2.016622 
11.756651 0.321166 2.378478 
10.405562 0.397951 3.071208 
9.132179 0.477418 3.951844 
7.945240 0.559200 4.900596 
6.744424 0.653965 5.860374 
5.532591 0.749241 6.768828 
4.269915 0.829670 7.638220 
2.972160 0.900871 8.426241 
1.606575 0.960926 9.090195 
0.162860 0.998750 9.554128 
-1.343418 1.017349 9.754551 
-2.866427 1.031739 9.800918 
-4.391079 1.042653 9.805789 
-5.913387 1.048328 9.802177 
-7.439684 1.056210 9.793672 
-8.965553 1.067862 9.768087 
-10.478987 1.073916 9.690618 
-11.993862 1.076741 9.507389 
-13.488249 1.076201 9.189675 
-14.964306 1.061634 8.809050 
-16.465581 1.027216 8.535188 
-17.987472 0.996311 8.445126 
-19.501332 0.990169 8.458331 
-21.030420 0.994495 8.482760 
-22.554698 0.999369 8.495046 
-24.064742 0.966605 8.329794 
-25.524307 0.843199 7.841607 
-26.934389 0.935407 8.104196 
-28.345371 1.093771 8.781603 
-29.803295 1.090549 9.164712 
-31.293759 1.054835 9.478559 
-32.794867 1.020931 9.681296 
-34.319550 1.019081 9.775053 
-35.852956 1.035818 9.813754 
-37.368876 1.043047 9.832934 
-38.892100 1.048130 9.844836 
-40.418302 1.052192 9.851966 
-41.896914 1.054871 9.855285 
-43.564868 1.056926 9.856460 
47.627109 1.638288 9.742180 
46.213699 1.643968 9.755718 
44.567081 1.650437 9.770673 
42.970530 1.655896 9.781504 
41.531918 1.658211 9.782761 
40.002333 1.659039 9.776584 
38.471138 1.660013 9.765600 
36.946477 1.660980 9.751043 
35.422022 1.660018 9.732660 
33.897385 1.654342 9.708690 
32.378912 1.641384 9.676848 
30.849963 1.621866 9.635375 
29.322062 1.612283 9.582637 
27.810047 1.604378 9.458842 
26.326941 1.546323 9.140547 
24.906445 1.462493 8.626556 
23.559333 1.355977 7.919645 
22.289479 1.226469 7.065806 
21.083150 1.086993 6.163435 
19.869287 0.947984 5.237275 
18.660186 0.807623 4.324801 
17.421211 0.649159 3.421126 
16.111171 0.502818 2.641308 
14.708901 0.403529 2.118257 
13.202118 0.382329 1.996194 
11.756651 0.456900 2.354066 
10.405562 0.576173 3.039155 
9.132179 0.709390 3.910124 
7.945240 0.848040 4.848647 
6.744424 1.000479 5.798053 
5.532591 1.151094 6.696554 
4.269915 1.285044 7.556320 
2.972160 1.403740 8.335799 
1.606575 1.502938 8.992714 
0.162860 1.568907 9.451585 
-1.343418 1.601808 9.649435 
-2.866427 1.621167 9.694908 
-4.391079 1.633600 9.699506 
-5.913387 1.639563 9.695842 
-7.439684 1.646788 9.687455 
-8.965553 1.655996 9.662310 
-10.478987 1.655249 9.586064 
-11.993862 1.642807 9.405582 
-13.488249 1.617849 9.092259 
-14.964306 1.574722 8.716771 
-16.465581 1.515983 8.447283 
-17.987472 1.468311 8.360236 
-19.501332 1.452214 8.375231 
-21.030420 1.450327 8.400778 
-22.554698 1.451021 8.413816 
-24.064742 1.416203 8.248933 
-25.524307 1.294639 7.760415 
-26.934389 1.398413 8.020924 
-28.345371 1.580893 8.693994 
-29.803295 1.611600 9.071000 
-31.293759 1.610911 9.378548 
-32.794867 1.599984 9.577152 
-34.319550 1.607668 9.669195 
-35.852956 1.626920 9.707443 
-37.368876 1.634940 9.726481 
-38.892100 1.640415 9.738313 
-40.418302 1.644646 9.745412 
-41.896914 1.647328 9.748731 
-43.564868 1.649298 9.749921 
47.627109 2.171614 9.613760 
46.213699 2.177484 9.627253 
44.567081 2.184153 9.642159 
42.970530 2.189707 9.652967 
41.531918 2.191873 9.654260 
40.002333 2.192317 9.648176 
38.471138 2.192760 9.637320 
36.946477 2.193108 9.622912 
35.422022 2.191433 9.604700 
33.897385 2.184879 9.580942 
32.378912 2.170784 9.549373 
30.849963 2.149647 9.508290 
29.322062 2.136959 9.456300 
27.810047 2.120768 9.334500 
26.326941 2.043620 9.020802 
24.906445 1.929378 8.514135 
23.559333 1.783436 7.816717 
22.289479 1.608243 6.973878 
21.083150 1.419960 6.083260 
19.869287 1.229201 5.169561 
18.660186 1.037107 4.269543 
17.421211 0.828568 3.377926 
16.111171 0.639330 2.608437 
14.708901 0.511413 2.092280 
13.202118 0.484470 1.971599 
11.756651 0.578958 2.324676 
10.405562 0.736438 3.000565 
9.132179 0.917988 3.859895 
7.945240 1.107777 4.786105 
6.744424 1.312079 5.723022 
5.532591 1.512457 6.609542 
4.269915 1.694536 7.457718 
2.972160 1.855941 8.226914 
1.606575 1.990337 8.875352 
0.162860 2.081616 9.328129 
-1.343418 2.127379 9.522883 
-2.866427 2.151206 9.567280 
-4.391079 2.165005 9.571549 
-5.913387 2.171227 9.567823 
-7.439684 2.177861 9.559578 
-8.965553 2.184870 9.534962 
-10.478987 2.178008 9.460188 
-11.993862 2.151837 9.283012 
-13.488249 2.104923 8.974976 
-14.964306 2.036112 8.605672 
-16.465581 1.955502 8.341451 
-17.987472 1.892753 8.258035 
-19.501332 1.867704 8.275185 
-21.030420 1.860230 8.302077 
-22.554698 1.857165 8.316020 
-24.064742 1.820501 8.151582 
-25.524307 1.700592 7.662665 
-26.934389 1.814766 7.920670 
-28.345371 2.018934 8.588518 
-29.803295 2.080150 8.958177 
-31.293759 2.110958 9.258141 
-32.794867 2.120693 9.451770 
-34.319550 2.136950 9.541748 
-35.852956 2.158463 9.579453 
-37.368876 2.167196 9.598319 
-38.892100 2.173022 9.610066 
-40.418302 2.177405 9.617128 
-41.896914 2.180090 9.620446 
-43.564868 2.181983 9.621656 
47.627109 2.820954 9.447525 
46.213699 2.827057 9.460958 
44.567081 2.833969 9.475803 
42.970530 2.839638 9.486581 
41.531918 2.841622 9.487920 
40.002333 2.841600 9.481956 
38.471138 2.841396 9.471265 
36.946477 2.840989 9.457050 
35.422022 2.838447 9.439061 
33.897385 2.830824 9.415576 
32.378912 2.815344 9.384362 
30.849963 2.792237 9.343783 
29.322062 2.775768 9.292761 
27.810047 2.749489 9.173544 
26.326941 2.649096 8.865797 
24.906445 2.497826 8.368609 
23.559333 2.303880 7.683480 
22.289479 2.073064 6.854881 
21.083150 1.825357 5.979476 
19.869287 1.571591 5.081907 
18.660186 1.316512 4.198013 
17.421211 1.047003 3.322005 
16.111171 0.805537 2.565887 
14.708901 0.642767 2.058652 
13.202118 0.608830 1.939762 
11.756651 0.727567 2.286631 
10.405562 0.931565 2.950611 
9.132179 1.171964 3.794876 
7.945240 1.424015 4.705146 
6.744424 1.691461 5.625898 
5.532591 1.952428 6.496906 
4.269915 2.193106 7.330082 
2.972160 2.406509 8.085965 
1.606575 2.583762 8.723432 
0.162860 2.705855 9.168320 
-1.343418 2.767276 9.359065 
-2.866427 2.796544 9.402069 
-4.391079 2.812007 9.405913 
-5.913387 2.818543 9.402106 
-7.439684 2.824458 9.394045 
-8.965553 2.828791 9.370114 
-10.478987 2.814483 9.297247 
-11.993862 2.771597 9.124350 
-13.488249 2.697950 8.823158 
-14.964306 2.597868 8.461859 
-16.465581 2.490631 8.204454 
-17.987472 2.409524 8.125738 
-19.501332 2.373576 8.145679 
-21.030420 2.359299 8.174312 
-22.554698 2.351659 8.189427 
-24.064742 2.312745 8.025565 
-25.524307 2.194853 7.536131 
-26.934389 2.321690 7.790895 
-28.345371 2.552262 8.451982 
-29.803295 2.650625 8.812132 
-31.293759 2.719781 9.102279 
-32.794867 2.754673 9.289467 
-34.319550 2.781368 9.376774 
-35.852956 2.805634 9.413773 
-37.368876 2.815234 9.432417 
-38.892100 2.821488 9.444055 
-40.418302 2.826056 9.451070 
-41.896914 2.828744 9.454387 
-43.564868 2.830545 9.455620 
47.627109 3.476382 9.256035 
46.213699 3.482718 9.269400 
44.567081 3.489876 9.284173 
42.970530 3.495662 9.294917 
41.531918 3.497463 9.296310 
40.002333 3.496969 9.290483 
38.471138 3.496112 9.279983 
36.946477 3.494944 9.265991 
35.422022 3.491527 9.248257 
33.897385 3.482824 9.225087 
32.378912 3.465946 9.194282 
30.849963 3.440851 9.154284 
29.322062 3.420566 9.104377 
27.810047 3.384104 8.988135 
26.326941 3.260247 8.687242 
24.906445 3.071602 8.200974 
23.559333 2.829203 7.530001 
22.289479 2.542242 6.717806 
21.083150 2.234554 5.859925 
19.869287 1.917190 4.980937 
18.660186 1.598537 4.115617 
17.421211 1.267486 3.257589 
16.111171 0.973302 2.516873 
14.708901 0.775351 2.019917 
13.202118 0.734356 1.903089 
11.756651 0.877570 2.242806 
10.405562 1.128521 2.893068 
9.132179 1.428320 3.719979 
7.945240 1.743218 4.611888 
6.744424 2.074399 5.514019 
5.532591 2.396523 6.367159 
4.269915 2.696348 7.183054 
2.972160 2.962238 7.923603 
1.606575 3.182749 8.548432 
0.162860 3.335946 8.984232 
-1.343418 3.413173 9.170360 
-2.866427 3.447932 9.211760 
-4.391079 3.465073 9.215113 
-5.913387 3.471928 9.211213 
-7.439684 3.477117 9.203364 
-8.965553 3.478748 9.180223 
-10.478987 3.456924 9.109551 
-11.993862 3.397166 8.941583 
-13.488249 3.296535 8.648275 
-14.964306 3.164890 8.296198 
-16.465581 3.030775 8.046646 
-17.987472 2.931140 7.973343 
-19.501332 2.884190 7.996498 
-21.030420 2.863047 8.027137 
-22.554698 2.850787 8.043601 
-24.064742 2.809604 7.880402 
-25.524307 2.693748 7.390374 
-26.934389 2.833365 7.641403 
-28.345371 3.090590 8.294704 
-29.803295 3.226447 8.643900 
-31.293759 3.334311 8.922738 
-32.794867 3.394595 9.102508 
-34.319550 3.431826 9.186736 
-35.852956 3.458872 9.222923 
-37.368876 3.469346 9.241312 
-38.892100 3.476033 9.252823 
-40.418302 3.480787 9.259784 
-41.896914 3.483478 9.263100 
-43.564868 3.485185 9.264360 
47.627109 4.069417 9.035679 
46.213699 4.075965 9.048965 
44.567081 4.083346 9.063655 
42.970530 4.089236 9.074360 
41.531918 4.090872 9.075814 
40.002333 4.089951 9.070146 
38.471138 4.088504 9.059866 
36.946477 4.086647 9.046129 
35.422022 4.082437 9.028690 
33.897385 4.072758 9.005883 
32.378912 4.054616 8.975547 
30.849963 4.027722 8.936218 
29.322062 4.003983 8.887594 
27.810047 3.958308 8.774776 
26.326941 3.813220 8.481772 
24.906445 3.590759 8.008069 
23.559333 3.304519 7.353386 
22.289479 2.966758 6.560067 
[...]
POINT_DATA 6500
SCALARS sample_scalars float 1
LOOKUP_TABLE my_table
3.641226
2.234199
0.632114
0.206551
0.400622
0.121006
0.414130
0.170239
0.331491
0.243679
0.252646
0.330372
0.207982
0.375349
0.220463
0.564721
0.321736
0.563491
0.370889
0.506248
0.540513
0.474023
0.449474
0.480340
0.202673
0.398172
0.070389
0.443690
0.227994
0.253360
0.339038
0.224754
0.400220
0.120682
0.419184
0.118914
0.500933
0.084067
0.478069
0.114857
0.407010
0.156117
0.373847
0.370195
0.532417
0.564918
0.795276
0.581350
0.724586
0.534972
0.497215
0.322787
0.125226
0.580994
0.467925
0.396982
0.177221
0.415188
0.134096
0.475384
0.083302
0.501842
0.369442
0.429577
3.640393
2.232977
0.628344
0.194980
0.395164
0.102564
0.409487
0.159659
0.326391
0.235926
0.242911
0.320485
0.191960
0.370329
0.211724
0.562888
0.321641
0.563626
0.375469
0.509174
0.546611
0.477859
0.453179
0.482095
0.205824
0.401104
0.077495
0.446768
0.226363
0.254060
0.335484
0.220409
0.394026
0.094908
0.410116
0.076943
0.493478
0.028693
0.472236
0.093129
0.403448
0.176555
0.401011
0.355744
0.525220
0.521169
0.735103
0.560407
0.708872
0.536382
0.505186
0.326821
0.141297
0.568207
0.444145
0.395809
0.220548
0.406252
0.104189
0.468536
0.031222
0.496296
0.362287
0.423727
3.640643
2.233282
0.629015
0.204870
0.399857
0.118933
0.413698
0.169593
0.331340
0.243718
0.253050
0.331032
0.209216
0.373230
0.218694
0.560170
0.319516
0.563848
0.370918
0.506421
0.543517
0.475329
0.451559
0.481034
0.203448
0.399467
0.061228
0.444540
0.227490
0.253712
0.340517
0.225639
0.404047
0.124179
0.421864
0.120147
0.501075
0.082213
0.477669
0.113897
0.407201
0.156480
0.370687
0.304942
0.544127
0.506585
0.679394
0.543250
0.727928
0.577647
0.552499
0.375251
0.232219
0.569956
0.407140
0.427289
0.181579
0.415320
0.132768
0.474851
0.079903
0.501293
0.368739
0.429025
3.640569
2.233276
0.629463
0.199499
0.397343
0.110299
0.411300
0.163556
0.328001
0.238066
0.245606
0.323600
0.197316
0.372327
0.215965
0.563719
0.323799
0.563364
0.377879
0.508185
0.550996
0.478680
0.455957
0.482701
0.206040
0.402128
0.060651
0.447800
0.223233
0.255190
0.334616
0.223211
0.397472
0.111407
0.416139
0.099052
0.496342
0.051806
0.473723
0.098020
0.403537
0.162054
0.379037
0.292205
0.545927
0.489465
0.648016
0.475414
0.681458
0.562212
0.559776
0.388367
0.258753
0.580750
0.410723
0.424791
0.203602
0.409422
0.114916
0.470795
0.054416
0.498181
0.364766
0.425777
3.642096
2.235993
0.639934
0.206326
0.401084
0.122253
0.414191
0.169097
0.329495
0.237059
0.239831
0.315422
0.183520
0.381456
0.226530
0.582444
0.343594
0.563795
0.397109
0.512464
0.566725
0.485590
0.464997
0.486266
0.211511
0.407374
0.060945
0.455529
0.212435
0.262712
0.319485
0.225727
0.382704
0.108462
0.409795
0.086089
0.492815
0.019458
0.471670
0.088523
0.400708
0.171709
0.387288
0.291248
0.551967
0.482392
0.631781
0.428010
0.651266
0.544707
0.546028
0.382723
0.264539
0.597812
0.430074
0.425484
0.232318
0.404211
0.103415
0.469609
0.052490
0.498595
0.365793
0.426883
3.643901
2.239090
0.651280
0.220450
0.408616
0.144009
0.420452
0.181793
0.334752
0.241851
0.241527
0.314837
0.182663
0.392840
0.242622
0.599998
0.362168
0.565094
0.411940
0.515126
0.578223
0.490354
0.471655
0.488942
0.215444
0.411011
0.055893
0.461290
0.205083
0.270957
0.309745
0.233301
0.375938
0.129638
0.413105
0.109399
0.495074
0.048199
0.473347
0.094338
0.400364
0.163398
0.371343
0.279811
0.539464
0.398428
0.634905
0.385105
0.623155
0.525734
0.528898
0.388099
0.283991
0.622211
0.444314
0.448183
0.222928
0.405528
0.114855
0.473173
0.081660
0.502834
0.371763
0.432075
3.646818
2.243893
0.667810
0.262284
0.432535
0.201301
0.442567
0.226175
0.359449
0.273980
0.273954
0.341767
0.226365
0.416106
0.280555
0.617769
0.385072
0.573656
0.421947
0.518385
0.582850
0.492770
0.474486
0.490635
0.218248
0.412619
0.058188
0.464929
0.216360
0.287022
0.324430
0.261414
0.398262
0.201540
0.445001
0.194609
0.516230
0.142871
0.490344
0.154426
0.416398
0.162209
0.336131
0.293673
0.473224
0.302449
0.605587
0.376739
0.613757
0.522391
0.521234
0.339846
0.219819
0.614975
0.468638
0.485858
0.172430
0.428918
0.181874
0.493572
0.162193
0.521866
0.397001
0.453848
3.648710
2.247037
0.678558
0.288128
0.448761
0.233953
0.458064
0.254392
0.377233
0.296222
0.295716
0.359397
0.252364
0.431721
0.303913
0.628567
0.400100
0.580928
0.430147
0.522586
0.587206
0.495658
0.476675
0.492086
0.221083
0.414496
0.069425
0.468377
0.227096
0.298598
0.336981
0.280016
0.414068
0.237118
0.464487
0.232688
0.529678
0.181564
0.502264
0.187802
0.429483
0.181091
0.331659
0.311964
0.446366
0.256104
0.560988
0.389600
0.620870
0.537396
0.532149
0.325155
0.211565
0.597963
0.484302
0.454340
0.165552
0.443806
0.215217
0.506929
0.199481
0.534701
0.413793
0.468639
3.650988
2.250821
0.691301
0.317230
0.468106
0.269086
0.476717
0.285942
0.398597
0.322256
0.321171
0.380349
0.281546
0.450186
0.330311
0.641031
0.417495
0.590198
0.439710
0.528195
0.591879
0.499205
0.478905
0.493425
0.224581
0.416723
0.084433
0.472512
0.240885
0.312348
0.352902
0.301517
0.433108
0.274106
0.486962
0.271594
0.545733
0.220494
0.516889
0.223254
0.445988
0.207765
0.335395
0.343428
0.437366
0.244521
0.537209
0.399501
0.641553
0.566701
0.553772
0.310830
0.216256
0.593545
0.504020
0.429329
0.168962
0.461471
0.250295
0.522966
0.237673
0.550203
0.433743
0.486408
3.653670
2.255272
0.706023
0.348855
0.490256
0.305934
0.498224
0.319921
0.423057
0.351299
0.349550
0.404118
0.313032
0.471254
0.359154
0.655185
0.437079
0.601381
0.450655
0.535198
0.596935
0.503430
0.478755
0.490594
0.221471
0.419319
0.101561
0.477358
0.257157
0.328032
0.371656
0.325365
0.454881
0.311995
0.511988
0.311017
0.564182
0.259618
0.534034
0.260017
0.465587
0.239455
0.346393
0.336973
0.441684
0.258860
0.529095
0.345022
0.606208
0.536031
0.585769
0.293905
0.230215
0.599311
0.518009
0.411758
0.180986
0.481560
0.286516
0.541479
0.276467
0.568192
0.456488
0.506885
3.656742
2.260363
0.722531
0.382328
0.514813
0.343894
0.522203
0.355600
0.450092
0.382665
0.380219
0.430269
0.346229
0.494532
0.387800
0.651765
0.432530
0.611486
0.462785
0.543515
0.601869
0.502409
0.474540
0.488051
0.216822
0.416933
0.112854
0.480089
0.250277
0.317798
0.372949
0.333537
0.455978
0.288019
0.491602
0.314968
0.584797
0.298871
0.553478
0.297638
0.487937
0.274239
0.363336
0.282437
0.454520
0.287347
0.532294
0.307181
0.583540
0.515970
0.573961
0.274970
0.252289
0.614140
0.516529
0.400298
0.199108
0.503783
0.323496
0.562215
0.315619
0.588425
0.481610
0.529739
3.657336
2.260452
0.719814
0.373220
0.507217
0.334055
0.519074
0.358447
0.458498
0.397584
0.396325
0.441249
0.354984
0.493031
0.356269
0.634726
0.410275
0.598738
0.456938
0.539992
0.595539
0.497398
0.470365
0.485784
0.212845
0.413775
0.094731
0.474166
0.236762
0.301679
0.355939
0.308380
0.435757
0.249422
0.468966
0.274845
0.574000
0.318160
0.574372
0.335803
0.512663
0.310890
0.384923
0.236220
0.472101
0.316916
0.543468
0.287047
0.572482
0.509426
0.563322
0.260781
0.284729
0.637832
0.524255
0.393707
0.221765
0.506799
0.325272
0.563241
0.316429
0.588611
0.481451
0.529393
3.654186
2.255295
0.703239
0.339836
0.483074
0.295955
0.495230
0.322565
0.430813
0.365411
0.364735
0.414252
0.321417
0.469649
0.326422
0.619099
0.389850
0.587822
0.444577
0.532017
0.589431
0.493005
0.466199
0.483779
0.209552
0.410947
0.078039
0.468861
0.226304
0.287518
0.342143
0.285322
0.418635
0.211798
0.449414
0.235148
0.554415
0.278929
0.553030
0.305693
0.494206
0.348630
0.409956
0.198940
0.491698
0.274837
0.560457
0.285692
0.572863
0.516664
0.560905
0.263475
0.330011
0.670680
0.538451
0.391567
0.248386
0.484344
0.288210
0.542364
0.277158
0.568294
0.456251
0.506485
3.651415
2.250760
0.688399
0.308358
0.461409
0.258950
0.473871
0.288276
0.405529
0.335262
0.335127
0.389452
0.289431
0.448426
0.298810
0.605018
0.371584
0.578854
0.433340
0.525364
0.583571
0.489255
0.462055
0.482042
0.206977
0.408463
0.063937
0.464207
0.219321
0.275622
0.331949
0.264932
0.404995
0.175764
0.433347
0.196155
0.537140
0.239760
0.533709
0.268126
0.471236
0.326158
0.437395
0.171941
0.512058
0.242420
0.579154
0.302114
0.584432
0.537353
0.568302
0.288992
0.385458
0.711812
0.557580
0.394329
0.279042
0.464055
0.251870
0.523685
0.238173
0.550200
0.433402
0.485932
3.649038
2.246878
0.675498
0.279514
0.442637
0.223688
0.455394
0.256305
0.383176
0.307788
0.308103
0.367301
0.259608
0.429770
0.274189
0.592722
0.355930
0.571926
0.423431
0.520110
0.578049
0.486198
0.457981
0.480592
0.205168
0.406355
0.054451
0.460268
0.216038
0.266325
0.325559
0.247880
0.395069
0.142461
0.421095
0.158345
0.522406
0.200752
0.516672
0.231321
0.450881
0.289412
0.451764
0.156273
0.496662
0.217000
0.557127
0.332851
0.606067
0.569419
0.585767
0.332414
0.444932
0.758910
0.581017
0.403051
0.313701
0.446201
0.216657
0.507474
0.199727
0.534589
0.413341
0.468087
3.647066
2.243666
0.664702
0.254210
0.427144
0.191143
0.440167
0.227635
0.364294
0.283758
0.284375
0.348264
0.232719
0.414065
0.253440
0.582404
0.343304
0.567093
0.415025
0.516309
0.572938
0.483870
0.454017
0.479442
0.204154
0.404646
0.052077
0.457090
0.216493
0.259899
0.323048
0.234847
0.388999
0.114071
0.412887
0.122620
0.510403
0.161994
0.502149
0.195720
0.433506
0.254697
0.424304
0.151814
0.478277
0.196844
0.538384
0.373404
0.604773
0.526928
0.611581
0.383294
0.501281
0.780794
0.607639
0.418316
0.351380
0.431061
0.183181
0.493965
0.162186
0.521680
0.396487
0.453267
3.645476
2.241090
0.655980
0.233413
0.415193
0.162689
0.428442
0.203491
0.349362
0.264031
0.264785
0.332867
0.209874
0.401517
0.237356
0.573957
0.333803
0.564368
0.408054
0.513943
0.568148
0.482222
0.450108
0.477482
0.203889
0.403300
0.057572
0.454623
0.220681
0.256423
0.324562
0.226392
0.387005
0.094652
0.408897
0.091063
0.501289
0.123592
0.490338
0.162047
0.419463
0.222506
0.399707
0.158412
0.461376
0.181974
0.522880
0.332977
0.564909
0.476706
0.590908
0.391865
0.506659
0.769076
0.635358
0.439765
0.341688
0.418947
0.152463
0.483332
0.126128
0.511617
0.383180
0.441701
3.644262
2.239137
0.649357
0.218311
0.407035
0.140662
0.420463
0.185548
0.338858
0.249588
0.250285
0.321630
0.192508
0.392359
0.226792
0.567358
0.327553
0.563747
0.402516
0.513001
0.563641
0.481227
0.446231
0.472434
0.197482
0.402299
0.068960
0.452844
0.228356
0.255923
0.330028
0.222932
0.389129
0.089797
0.409167
0.069191
0.495197
0.085957
0.481433
0.131784
0.409095
0.193879
0.378206
0.175686
0.446135
0.175033
0.511651
0.272089
0.532624
0.433808
0.543084
0.350227
0.478738
0.758317
0.661293
0.466158
0.305519
0.410154
0.126456
0.475743
0.093140
0.504539
0.373753
0.433610
3.643424
2.237809
0.644894
0.210061
0.402861
0.128288
0.416406
0.175633
0.333163
0.241328
0.241744
0.314960
0.182120
0.386812
0.222446
0.562659
0.324689
0.565193
0.398471
0.513468
0.559435
0.480878
0.437846
0.467708
0.189064
0.400787
0.083743
0.451752
0.239066
0.258345
0.339132
0.224591
0.395186
0.101220
0.413568
0.066751
0.492201
0.050660
0.475591
0.107814
0.402672
0.170637
0.360439
0.203006
0.434129
0.181945
0.507040
0.214322
0.509398
0.400296
0.501705
0.313788
0.447815
0.746890
0.683041
0.495621
0.270488
0.404890
0.108490
0.471320
0.067675
0.500549
0.368469
0.429159
3.642975
2.237127
0.642712
0.209450
0.402782
0.128333
0.416365
0.175060
0.332488
0.239830
0.239713
0.313059
0.179756
0.385076
0.224659
0.560030
0.325376
0.568639
0.396078
0.515335
0.555628
0.481197
0.427695
0.463321
0.181314
0.394442
0.100293
0.451388
0.252220
0.263570
0.351342
0.231154
0.404758
0.124144
0.421795
0.084955
0.492301
0.027973
0.472908
0.094950
0.400347
0.155442
0.347401
0.239144
0.428596
0.206482
0.511639
0.166064
0.496988
0.379761
0.469241
0.284474
0.412399
0.733388
0.669450
0.492576
0.237996
0.403235
0.102707
0.470126
0.060018
0.499700
0.367483
0.428441
3.642911
2.237084
0.642800
0.216386
0.406712
0.140533
0.420260
0.183733
0.336770
0.245095
0.244235
0.315928
0.185569
0.387132
0.233086
0.559452
0.329491
0.573986
0.395337
0.518549
0.552226
0.473120
0.417626
0.459300
0.174338
0.388523
0.113028
0.451732
0.267336
0.271335
0.366215
0.242077
0.417467
0.153145
0.433485
0.113919
0.495424
0.044579
0.473395
0.097474
0.402131
0.151116
0.340406
0.281581
0.432783
0.245763
0.526856
0.142410
0.497413
0.377011
0.449876
0.267820
0.372751
0.717238
0.627641
0.460261
0.209224
0.405155
0.110777
0.472125
0.075387
0.501950
0.370746
0.431401
3.643208
2.237641
0.645011
0.229937
0.414396
0.161808
0.427852
0.200195
0.345687
0.256551
0.254849
0.323383
0.198748
0.392749
0.246826
0.560712
0.336637
0.581114
0.396083
0.523015
0.545805
0.465058
0.407664
0.455650
0.168212
0.383051
0.098543
0.452711
0.284064
0.281278
0.383436
0.256635
0.433026
0.185087
0.448265
0.147108
0.501451
0.078243
0.476985
0.114134
0.407907
0.158797
0.340521
0.327474
0.447983
0.293845
0.543986
0.160192
0.512535
0.290212
0.449067
0.272626
0.332162
0.698847
0.581065
0.431803
0.185200
0.410529
0.129905
0.477197
0.103628
0.507168
0.378023
0.437854
3.643852
2.238771
0.649231
0.248821
0.425507
0.188844
0.438833
0.222506
0.358768
0.273273
0.270712
0.335036
0.217829
0.401651
0.264842
0.563662
0.346436
0.589885
0.398202
0.528639
0.531459
0.457726
0.397763
0.452351
0.162963
0.378004
0.086856
0.448434
0.302047
0.293045
0.402615
0.274088
0.451052
0.218401
0.465709
0.181937
0.510203
0.114563
0.483550
0.139771
0.417435
0.176860
0.347971
0.280462
0.473074
0.221599
0.548434
0.213501
0.509430
0.185933
0.444241
0.304789
0.299447
0.679784
0.528640
0.407595
0.167362
0.419144
0.155863
0.485171
0.136706
0.515182
0.388978
0.447551
3.644842
2.240470
0.655403
0.271772
0.439685
0.219316
0.452856
0.248917
0.375457
0.294213
0.290816
0.350344
0.241230
0.413557
0.286175
0.568262
0.358588
0.600140
0.401668
0.530352
0.517331
0.451132
0.387917
0.449394
0.158632
0.373383
0.079084
0.439658
0.299188
0.298479
0.423294
0.293756
0.471065
0.252258
0.485345
0.217330
0.521452
0.151405
0.492910
0.170191
0.430370
0.202189
0.362024
0.227013
0.505083
0.161388
0.539148
0.281064
0.489292
0.112733
0.400297
0.360159
0.286109
0.626380
0.469808
0.388256
0.157348
0.430695
0.185600
0.495828
0.171622
0.525788
0.403209
0.460196
3.646183
2.242748
0.663506
0.297729
0.456560
0.251823
0.469560
0.278109
0.395188
0.318396
0.314190
0.368710
0.267615
0.428192
0.310026
0.574541
0.361493
0.611676
0.405364
0.521623
0.503488
0.445306
0.378161
0.446782
0.155269
0.369207
0.076233
0.431600
0.296445
0.281668
0.436134
0.315069
0.492561
0.286190
0.506707
0.252779
0.534937
0.188262
0.504846
0.203094
0.446312
0.231878
0.381238
0.182820
0.528633
0.137134
0.545403
0.266429
0.495934
0.153312
0.396334
0.401710
0.283868
0.561644
0.405984
0.374578
0.156269
0.444829
0.217384
0.508923
0.207269
0.538763
0.420294
0.475472
3.647862
2.245576
0.673381
0.325810
0.475730
0.285476
0.488558
0.309124
0.417407
0.345007
0.340044
0.389617
0.296075
0.445166
0.335690
0.564168
0.331918
0.601589
0.385060
0.514269
0.490045
0.440284
0.368559
0.444525
0.152916
0.365500
0.078563
0.424324
0.296118
0.266829
0.430559
0.326887
0.515266
0.310218
0.529466
0.288077
0.550421
0.224973
0.519117
0.237307
0.464866
0.264011
0.404190
0.153866
0.523315
0.163533
0.569887
0.296715
0.530273
0.263492
0.436994
0.435188
0.242909
0.508019
0.340112
0.367402
0.163840
0.461221
0.250291
0.524199
0.243149
0.553860
0.439793
0.493037
3.649853
2.248913
0.684807
0.355317
0.496787
0.319695
0.509460
0.341272
0.441601
0.373381
0.367737
0.412605
0.325970
0.464060
0.351924
0.541241
0.303571
0.593273
0.365696
0.508284
0.476995
0.436050
0.359105
0.439786
0.151454
0.362250
0.085429
0.417821
0.298102
0.254148
0.427530
0.306364
0.506991
0.281637
0.517392
0.323105
0.567665
0.261439
0.535460
0.272183
0.485642
0.297472
0.429791
0.145693
0.525972
0.221237
0.609750
0.361211
0.587556
0.386440
0.510450
0.492738
0.255869
0.473875
0.276107
0.367133
0.178384
0.479547
0.283782
0.541380
0.278981
0.570811
0.461274
0.512539
3.652140
2.252728
0.694919
0.363293
0.497109
0.318051
0.509493
0.346268
0.452551
0.399546
0.396736
0.437229
0.356794
0.471923
0.321949
0.519620
0.276534
0.586747
0.347249
0.503650
0.464265
0.432558
0.349753
0.435007
0.142246
0.359425
0.095700
0.412056
0.302322
0.243805
0.427101
0.288237
0.499098
0.255585
0.503627
0.308759
0.586415
0.297576
0.553603
0.307330
0.508251
0.331572
0.457175
0.158376
0.536063
0.290176
0.655662
0.444100
0.660410
0.508368
0.600072
0.560684
0.310845
0.465376
0.219621
0.373426
0.197699
0.499472
0.317503
0.560189
0.314591
0.589350
0.484341
0.531740
3.652084
2.249619
0.676268
0.332005
0.475005
0.282519
0.488118
0.313776
0.427959
0.371169
0.386154
0.449042
0.364831
0.447996
0.293770
0.499397
0.251059
0.582001
0.329811
0.500350
0.451863
0.429785
0.340503
0.430707
0.134036
0.357010
0.108225
0.407024
0.308572
0.235968
0.429169
0.272845
0.493854
0.232683
0.492584
0.279557
0.578507
0.317038
0.571591
0.330464
0.501757
0.359555
0.485658
0.185190
0.552606
0.361822
0.696734
0.534212
0.741046
0.622301
0.692093
0.627368
0.381739
0.482716
0.179013
0.385207
0.219807
0.520663
0.329599
0.558909
0.299423
0.575908
0.462832
0.510567
3.648892
2.244499
0.659284
0.302650
0.455298
0.248301
0.469187
0.283261
0.405873
0.345113
0.360789
0.427055
0.338365
0.426101
0.267785
0.480745
0.227541
0.578978
0.313558
0.498350
0.439854
0.427719
0.326220
0.426884
0.126957
0.352981
0.122092
0.402739
0.316538
0.230734
0.433480
0.260476
0.491130
0.213581
0.484247
0.252611
0.562758
0.282948
0.552543
0.296500
0.481705
0.331965
0.499008
0.219111
0.573938
0.431523
0.744808
0.621047
0.818430
0.716960
0.773141
0.644184
0.449333
0.518984
0.162626
0.400890
0.243215
0.503249
0.298012
0.540976
0.264807
0.558861
0.441652
0.491627
3.646078
2.239998
0.644087
0.275607
0.438158
0.215699
0.452849
0.255148
0.386532
0.321709
0.337904
0.407322
0.314078
0.406472
0.244437
0.463882
0.206504
0.575480
0.298723
0.497591
0.428346
0.426348
0.311868
0.423544
0.121150
0.347033
0.136650
0.399216
0.325837
0.228085
0.439657
0.251291
0.490649
0.198826
0.478466
0.228289
0.549055
0.249865
0.535506
0.263781
0.464152
0.307331
0.490204
0.256175
0.597902
0.495172
0.791778
0.692865
0.879189
0.778799
0.829660
0.591391
0.411816
0.528145
0.168809
0.418664
0.266927
0.486475
0.267855
0.525121
0.231210
0.543954
0.422885
0.475047
3.643617
2.236077
0.630653
0.251333
0.423720
0.185170
0.439230
0.230016
0.370189
0.301375
0.317876
0.390080
0.292376
0.389252
0.224217
0.448759
0.188312
0.562196
0.285304
0.497995
0.417275
0.425608
0.297725
0.420683
0.116724
0.341698
0.151569
0.396399
0.336294
0.227912
0.447573
0.245436
0.492364
0.189089
0.475211
0.207223
0.537464
0.218023
0.520586
0.232621
0.449277
0.286102
0.484937
0.294353
0.622156
0.548816
0.828557
0.738339
0.910434
0.794940
0.822270
0.456052
0.332288
0.524865
0.184360
0.436757
0.290355
0.471796
0.239460
0.511430
0.198853
0.531252
0.406707
0.460939
3.641494
2.232709
0.618977
0.230471
0.412135
0.157570
0.428461
0.208692
0.357119
0.284617
0.301162
0.375609
0.273784
0.374615
0.207756
0.435343
0.173431
0.549754
0.273311
0.499483
0.406581
0.422490
0.283774
0.418280
0.113730
0.336960
0.166628
0.394232
0.347743
0.230047
0.457090
0.242977
0.496208
0.184873
0.474436
0.190266
0.528060
0.187886
0.507909
0.203583
0.437273
0.268865
0.483110
0.332435
0.644317
0.588459
0.788437
0.665531
0.832287
0.667330
0.655618
0.285371
0.234150
0.516187
0.195687
0.453574
0.313220
0.459324
0.213381
0.500005
0.168208
0.520832
0.393324
0.449435
3.639698
2.229878
0.609090
0.213767
0.403509
0.134287
0.420625
0.192153
0.347531
0.271908
0.288177
0.364131
0.258815
0.362745
0.195713
0.423680
0.162422
0.538161
0.262827
0.501967
0.396262
0.416693
0.269986
0.416311
0.112175
0.332805
0.181643
0.392677
0.359960
0.234248
0.467968
0.243800
0.501992
0.186171
0.475993
0.178259
0.520874
0.160182
0.497577
0.177498
0.428271
0.256151
0.484507
0.369616
0.661062
0.609602
0.717230
0.523614
0.680088
0.420657
0.438796
0.336359
0.206033
0.508444
0.194026
0.467864
0.335543
0.449121
0.190366
0.490920
0.140082
0.512740
0.382902
0.440623
3.638228
2.227582
0.601051
0.201898
0.397847
0.117257
0.415701
0.181271
0.341486
0.263529
0.279157
0.355717
0.247803
0.353788
0.188562
0.413904
0.155823
0.527545
0.254030
0.505340
0.386396
0.411790
0.256383
0.414758
0.112021
0.329226
0.185611
0.391715
0.372641
0.240190
0.479836
0.247565
0.509355
0.192301
0.479574
0.171681
0.515842
0.135929