# vtk DataFile Version 2.0
Comment goes here
ASCII
DATASET UNSTRUCTURED_GRID
POINTS 6500 float
47.627109 1.049984 9.750999 
46.216352 1.053095 9.763566 
44.572336 1.056577 9.777510 
42.977390 1.059264 9.787718 
41.542313 1.059966 9.788240 
40.015300 1.060672 9.780707 
38.486705 1.062989 9.768923 
36.964635 1.066166 9.756182 
35.442705 1.067954 9.744610 
33.920483 1.065797 9.734840 
32.404289 1.057142 9.725030 
30.877623 1.042666 9.709782 
29.352581 1.035271 9.662110 
27.844194 1.029979 9.512277 
26.372537 0.988678 9.167400 
24.970865 0.936321 8.598464 
23.627577 0.875775 7.864960 
22.346561 0.801992 7.034327 
21.128221 0.720101 6.157391 
19.919201 0.638689 5.212976 
18.731602 0.555873 4.259147 
17.497735 0.454542 3.335244 
16.195041 0.354366 2.557942 
14.794983 0.281292 2.029560 
13.288256 0.261433 1.888424 
11.849634 0.315189 2.248747 
10.492284 0.398029 2.940398 
9.210197 0.479086 3.799130 
8.009188 0.555678 4.721261 
6.802589 0.645191 5.663136 
5.592340 0.738805 6.573521 
4.341003 0.818541 7.463347 
3.052948 0.890256 8.263527 
1.691090 0.948004 8.914223 
0.240364 0.976534 9.363793 
-1.256891 0.994030 9.605610 
-2.773873 1.014909 9.706323 
-4.295648 1.033392 9.746497 
-5.815009 1.043585 9.761192 
-7.338662 1.053660 9.754680 
-8.861951 1.066451 9.711184 
-10.368003 1.071170 9.592286 
-11.872133 1.067325 9.349619 
-13.354983 1.067322 8.981474 
-14.818346 1.073195 8.573507 
-16.315433 1.066245 8.281602 
-17.830836 1.056265 8.135813 
-19.339760 1.061288 8.069847 
-20.864741 1.073806 8.021822 
-22.388252 1.082096 7.981999 
-23.907814 1.101880 7.952148 
-25.430640 1.135434 7.965509 
-26.933270 1.154212 8.139724 
-28.409384 1.128613 8.508996 
-29.864446 1.074288 8.971496 
-31.324977 1.033278 9.389766 
-32.816824 1.004398 9.630418 
-34.337681 1.005677 9.723876 
-35.868659 1.023502 9.757590 
-37.381893 1.034040 9.774357 
-38.902430 1.041478 9.781671 
-40.426089 1.046792 9.782193 
-41.902230 1.050234 9.778838 
-43.567698 1.052946 9.774320 
47.627109 1.643958 9.644171 
46.216352 1.646918 9.656766 
44.572336 1.650194 9.670747 
42.977390 1.652573 9.681011 
41.542313 1.652829 9.681612 
40.015300 1.653015 9.674174 
38.486705 1.654847 9.662476 
36.964635 1.657555 9.649820 
35.442705 1.658833 9.638339 
33.920483 1.656065 9.628680 
32.404289 1.646581 9.619018 
30.877623 1.630792 9.604006 
29.352581 1.619869 9.556969 
27.844194 1.604509 9.408946 
26.372537 1.541662 9.067945 
24.970865 1.455911 8.505015 
23.627577 1.352327 7.779251 
22.346561 1.228423 6.957632 
21.128221 1.092506 6.090414 
19.919201 0.953773 5.156308 
18.731602 0.813986 4.212726 
17.497735 0.656824 3.298864 
16.195041 0.508190 2.530276 
14.794983 0.401460 2.007948 
13.288256 0.373347 1.868296 
11.849634 0.448340 2.224799 
10.492284 0.573678 2.908807 
9.210197 0.708415 3.757885 
8.009188 0.841503 4.669855 
6.802589 0.988321 5.601423 
5.592340 1.137067 6.501893 
4.341003 1.270026 7.382147 
3.052948 1.389504 8.173737 
1.691090 1.486481 8.817377 
0.240364 1.542496 9.262004 
-1.256891 1.574724 9.501171 
-2.773873 1.601882 9.600755 
-4.295648 1.623052 9.640446 
-5.815009 1.634245 9.654960 
-7.338662 1.644107 9.648488 
-8.861951 1.654816 9.605366 
-10.368003 1.652914 9.487659 
-11.872133 1.633587 9.247776 
-13.354983 1.610023 8.883868 
-14.818346 1.590293 8.480506 
-16.315433 1.562375 8.192372 
-17.830836 1.538092 8.049156 
-19.339760 1.534418 7.984753 
-20.864741 1.541297 7.937743 
-22.388252 1.545465 7.898662 
-23.907814 1.562457 7.869312 
-25.430640 1.596027 7.882670 
-26.933270 1.622909 8.055428 
-28.409384 1.617755 8.421023 
-29.864446 1.594122 8.878002 
-31.324977 1.586770 9.290219 
-32.816824 1.581281 9.526665 
-34.337681 1.592337 9.618365 
-35.868659 1.612814 9.651602 
-37.381893 1.624649 9.668135 
-38.902430 1.632841 9.675314 
-40.426089 1.638520 9.675770 
-41.902230 1.642088 9.672392 
-43.567698 1.644819 9.667870 
47.627109 2.178085 9.515559 
46.216352 2.180907 9.528186 
44.572336 2.183999 9.542211 
42.977390 2.186100 9.552542 
41.542313 2.185955 9.553240 
40.015300 2.185675 9.545914 
38.486705 2.187070 9.534322 
36.964635 2.189357 9.521767 
35.442705 2.190177 9.510397 
33.920483 2.186858 9.500869 
32.404289 2.176630 9.491388 
30.877623 2.159659 9.476660 
29.352581 2.145564 9.430386 
27.844194 2.121151 9.284544 
26.372537 2.038929 8.948207 
24.970865 1.923148 8.392508 
23.627577 1.780862 7.676064 
22.346561 1.611887 6.865298 
21.128221 1.427388 6.009777 
19.919201 1.237110 5.088083 
18.731602 1.046091 4.156837 
17.497735 0.838725 3.255064 
16.195041 0.646516 2.496969 
14.794983 0.509519 1.981928 
13.288256 0.473984 1.844064 
11.849634 0.568075 2.195968 
10.492284 0.731629 2.870774 
9.210197 0.914638 3.708228 
8.009188 1.098529 4.607965 
6.802589 1.296879 5.527125 
5.592340 1.495200 6.415658 
4.341003 1.676020 7.284387 
3.052948 1.838449 8.065635 
1.691090 1.970702 8.700781 
0.240364 2.051433 9.139457 
-1.256891 2.096909 9.375434 
-2.773873 2.129713 9.473658 
-4.295648 2.153298 9.512768 
-5.815009 2.165392 9.527065 
-7.338662 2.175061 9.520639 
-8.861951 2.183898 9.477968 
-10.368003 2.176042 9.361694 
-11.872133 2.142794 9.125164 
-13.354983 2.098042 8.766357 
-14.818346 2.055289 8.368539 
-16.315433 2.008516 8.084946 
-17.830836 1.971371 7.944826 
-19.339760 1.959876 7.882307 
-20.864741 1.961683 7.836518 
-22.388252 1.962145 7.798329 
-23.907814 1.976627 7.769584 
-25.430640 2.010211 7.782938 
-26.933270 2.044381 7.953941 
-28.409384 2.057612 8.315109 
-29.864446 2.061580 8.765443 
-31.324977 2.084493 9.170372 
-32.816824 2.100038 9.401753 
-34.337681 2.119886 9.491336 
-35.868659 2.142747 9.523999 
-37.381893 2.155750 9.540251 
-38.902430 2.164620 9.547266 
-40.426089 2.170628 9.547643 
-41.902230 2.174307 9.544238 
-43.567698 2.177055 9.539713 
47.627109 2.828400 9.349074 
46.216352 2.831056 9.361744 
44.572336 2.833924 9.375827 
42.977390 2.835686 9.386244 
41.542313 2.835054 9.387067 
40.015300 2.834204 9.379887 
38.486705 2.835068 9.368431 
36.964635 2.836842 9.356007 
35.442705 2.837104 9.344780 
33.920483 2.833116 9.335424 
32.404289 2.821980 9.326174 
30.877623 2.803571 9.311815 
29.352581 2.785614 9.266529 
27.844194 2.750178 9.123509 
26.372537 2.644367 8.793212 
24.970865 2.492024 8.246873 
23.627577 2.302617 7.542491 
22.346561 2.078767 6.745774 
21.128221 1.835117 5.905396 
19.919201 1.582082 4.999768 
18.731602 1.328686 4.084491 
17.497735 1.060195 3.198366 
16.195041 0.814932 2.453853 
14.794983 0.641085 1.948247 
13.288256 0.596512 1.812696 
11.849634 0.713857 2.158647 
10.492284 0.923939 2.821541 
9.210197 1.165719 3.643950 
8.009188 1.411467 4.527851 
6.802589 1.672557 5.430949 
5.592340 1.931239 6.304030 
4.341003 2.170331 7.157841 
3.052948 2.385054 7.925701 
1.691090 2.560255 8.549851 
0.240364 2.671079 8.980824 
-1.256891 2.732685 9.212671 
-2.773873 2.772363 9.309136 
-4.295648 2.798890 9.347492 
-5.815009 2.812079 9.361509 
-7.338662 2.821515 9.355143 
-8.861951 2.828072 9.313055 
-10.368003 2.812967 9.198638 
-11.872133 2.762770 8.966446 
-13.354983 2.692220 8.614244 
-14.818346 2.621436 8.223602 
-16.315433 2.551706 7.945886 
-17.830836 2.498902 7.809775 
-19.339760 2.477885 7.749694 
-20.864741 2.473517 7.705486 
-22.388252 2.469466 7.668452 
-23.907814 2.480891 7.640489 
-25.430640 2.514494 7.653839 
-26.933270 2.557536 7.822571 
-28.409384 2.593151 8.178008 
-29.864446 2.630723 8.619739 
-31.324977 2.690486 9.015235 
-32.816824 2.731642 9.240058 
-34.337681 2.762193 9.326901 
-35.868659 2.787958 9.358821 
-37.381893 2.802381 9.374709 
-38.902430 2.812076 9.381514 
-40.426089 2.818485 9.381788 
-41.902230 2.822301 9.378348 
-43.567698 2.825070 9.373817 
47.627109 3.484812 9.157297 
46.216352 3.487300 9.170016 
44.572336 3.489941 9.184165 
42.977390 3.491361 9.194682 
41.542313 3.490237 9.195649 
40.015300 3.488813 9.188636 
38.486705 3.489140 9.177337 
36.964635 3.490396 9.165064 
35.442705 3.490095 9.154002 
33.920483 3.485432 9.144843 
32.404289 3.473379 9.135861 
30.877623 3.453520 9.121926 
29.352581 3.431664 9.077779 
27.844194 3.385102 8.938010 
26.372537 3.255480 8.614669 
24.970865 3.066233 8.079112 
23.627577 2.829263 7.388626 
22.346561 2.550023 6.608091 
21.128221 2.246668 5.785157 
19.919201 1.930288 4.898036 
18.731602 1.613931 4.001153 
17.497735 1.283741 3.133055 
16.195041 0.984927 2.404188 
14.794983 0.773884 1.909448 
13.288256 0.720190 1.776562 
11.849634 0.861005 2.115657 
10.492284 1.118052 2.764829 
9.210197 1.419155 3.569906 
8.009188 1.727337 4.435567 
6.802589 2.051757 5.320162 
5.592340 2.371365 6.175442 
4.341003 2.669276 7.012069 
3.052948 2.936782 7.764508 
1.691090 3.155336 8.375993 
0.240364 3.296533 8.798091 
-1.256891 3.374420 9.025181 
-2.773873 3.421037 9.119619 
-4.295648 3.450533 9.157108 
-5.815009 3.464828 9.170802 
-7.338662 3.474028 9.164504 
-8.861951 3.478285 9.123089 
-10.368003 3.455863 9.010809 
-11.872133 3.388557 8.783616 
-13.354983 3.291968 8.439022 
-14.818346 3.192890 8.056646 
-16.315433 3.099988 7.785700 
-17.830836 3.031378 7.654207 
-19.339760 3.000749 7.596933 
-20.864741 2.990148 7.554546 
-22.388252 2.981542 7.518843 
-23.907814 2.989883 7.491782 
-25.430640 3.023504 7.505127 
-26.933270 3.075501 7.671242 
-28.409384 3.133710 8.020078 
-29.864446 3.205202 8.451899 
-31.324977 3.302159 8.836528 
-32.816824 3.369165 9.053799 
-34.337681 3.410521 9.137485 
-35.868659 3.439217 9.168549 
-37.381893 3.455074 9.184018 
-38.902430 3.465602 9.190579 
-40.426089 3.472415 9.190735 
-41.902230 3.476369 9.187255 
-43.567698 3.479159 9.182718 
47.627109 4.078737 8.936609 
46.216352 4.081074 8.949385 
44.572336 4.083509 8.963610 
42.977390 4.084621 8.974242 
41.542313 4.083051 8.975374 
40.015300 4.081107 8.968555 
38.486705 4.080949 8.957436 
36.964635 4.081737 8.945337 
35.442705 4.080926 8.934464 
33.920483 4.075652 8.925532 
32.404289 4.062770 8.916858 
30.877623 4.041597 8.903411 
29.352581 4.016215 8.860576 
27.844194 3.959585 8.724547 
26.372537 3.808420 8.409211 
24.970865 3.585780 7.886061 
23.627577 3.305776 7.211566 
22.346561 2.976419 6.449654 
[...]
POINT_DATA 6500
SCALARS sample_scalars float 1
LOOKUP_TABLE my_table
3.636179
2.228008
0.602645
0.190621
0.406014
0.120393
0.398609
0.193238
0.318891
0.278130
0.242806
0.361550
0.190014
0.392318
0.152670
0.514828
0.166626
0.518012
0.289938
0.449606
0.436851
0.354695
0.352565
0.355607
0.206292
0.254980
0.210309
0.308329
0.411326
0.187711
0.532056
0.205205
0.564170
0.164548
0.503140
0.176601
0.475655
0.155153
0.386119
0.212060
0.319869
0.292016
0.331416
0.309050
0.293817
0.360350
0.489508
0.284573
0.328176
0.323616
0.301581
0.427656
0.262721
0.437613
0.317945
0.355989
0.181189
0.408284
0.164964
0.465936
0.093956
0.510302
0.365142
0.433287
3.635617
2.227155
0.599756
0.179530
0.401026
0.103051
0.394199
0.185275
0.314599
0.272838
0.234692
0.354059
0.174849
0.388161
0.140111
0.513597
0.169312
0.518730
0.298047
0.453872
0.446807
0.361681
0.359241
0.358448
0.209159
0.259407
0.211730
0.313844
0.409554
0.188975
0.528825
0.200143
0.559251
0.146322
0.495131
0.147369
0.466692
0.131359
0.378584
0.201147
0.315736
0.305519
0.366538
0.306077
0.291621
0.311328
0.473124
0.259493
0.300300
0.287986
0.247837
0.405462
0.206366
0.419954
0.294807
0.355670
0.221017
0.397967
0.138508
0.458360
0.051245
0.504811
0.358048
0.427755
3.635713
2.227272
0.600029
0.188433
0.405116
0.117735
0.397914
0.191961
0.318196
0.277431
0.242232
0.361369
0.189986
0.390346
0.149737
0.510920
0.164010
0.517650
0.292010
0.449979
0.444118
0.358338
0.358292
0.357092
0.206466
0.256642
0.203665
0.310174
0.407840
0.187118
0.530438
0.205541
0.565736
0.167198
0.502080
0.179599
0.475935
0.154569
0.385606
0.211227
0.319561
0.294350
0.337666
0.259227
0.322771
0.288963
0.393415
0.293614
0.309426
0.275687
0.207367
0.353432
0.146908
0.403395
0.243691
0.394331
0.188293
0.409148
0.164986
0.465561
0.091142
0.509725
0.364307
0.432584
3.635717
2.227338
0.600508
0.180117
0.401336
0.103761
0.394033
0.183943
0.313377
0.271402
0.233913
0.354760
0.177078
0.389259
0.143306
0.514880
0.171772
0.516374
0.302604
0.452142
0.455988
0.364127
0.366060
0.359540
0.208052
0.259936
0.200370
0.314454
0.402402
0.184936
0.523508
0.197932
0.558672
0.150748
0.497307
0.158719
0.469390
0.136968
0.379871
0.201909
0.313920
0.297499
0.350506
0.258343
0.329008
0.273943
0.365350
0.305906
0.319863
0.285236
0.213064
0.346538
0.157435
0.405833
0.247831
0.388781
0.207213
0.401820
0.147073
0.460319
0.063016
0.505793
0.359056
0.428331
3.637002
2.229572
0.609293
0.177023
0.399908
0.096322
0.391676
0.177900
0.309187
0.265254
0.224027
0.346678
0.160492
0.396149
0.150038
0.532838
0.199223
0.514054
0.326827
0.456046
0.476970
0.373397
0.379008
0.363744
0.210719
0.265443
0.193914
0.322227
0.389518
0.181074
0.506182
0.183790
0.541404
0.120133
0.494391
0.122800
0.461212
0.115367
0.374652
0.193184
0.306644
0.298522
0.357267
0.262395
0.333554
0.269934
0.351263
0.313523
0.326613
0.295969
0.225955
0.348408
0.181768
0.411633
0.267046
0.382081
0.229164
0.392586
0.125766
0.455737
0.027610
0.503123
0.355539
0.425454
3.638181
2.231636
0.617370
0.177856
0.400365
0.096196
0.390789
0.173794
0.305760
0.260326
0.217415
0.342764
0.153284
0.403913
0.162097
0.548131
0.217863
0.510354
0.342978
0.456330
0.491324
0.378009
0.388049
0.366210
0.211329
0.268117
0.183777
0.325903
0.376292
0.174653
0.490214
0.171934
0.528294
0.102102
0.496463
0.109919
0.459294
0.110033
0.373740
0.190026
0.300420
0.285705
0.333883
0.248080
0.364706
0.297840
0.342859
0.343771
0.348954
0.319874
0.252852
0.353990
0.210800
0.421789
0.275701
0.401513
0.216138
0.391023
0.124714
0.456040
0.034833
0.503462
0.355644
0.425179
3.639631
2.234196
0.627368
0.205282
0.413839
0.141157
0.402893
0.196140
0.317514
0.274108
0.236752
0.359025
0.189851
0.420531
0.199620
0.560134
0.231703
0.509618
0.347912
0.453233
0.493952
0.375378
0.390084
0.366063
0.209534
0.266918
0.172363
0.324107
0.369695
0.173906
0.486626
0.184030
0.534119
0.150781
0.513916
0.175722
0.477844
0.164394
0.391396
0.217866
0.311619
0.268077
0.276300
0.243136
0.382119
0.286952
0.363760
0.265444
0.373547
0.377582
0.312347
0.368721
0.254275
0.447901
0.293748
0.447409
0.166840
0.414469
0.183853
0.473901
0.128072
0.517081
0.373219
0.438895
3.640884
2.236352
0.635471
0.226163
0.424929
0.170642
0.413593
0.215942
0.329476
0.287800
0.253386
0.371477
0.213750
0.433022
0.223760
0.569150
0.245741
0.511869
0.355640
0.454474
0.499989
0.377161
0.394006
0.367161
0.209963
0.268148
0.168123
0.326069
0.367180
0.178493
0.486150
0.195946
0.539421
0.178051
0.524673
0.206612
0.489601
0.193860
0.404127
0.238408
0.323481
0.271091
0.262918
0.258317
0.350529
0.232163
0.384581
0.238539
0.345983
0.378576
0.349895
0.386977
0.289959
0.459881
0.309182
0.415261
0.161382
0.429093
0.214063
0.485815
0.165250
0.527040
0.386312
0.449628
3.642454
2.239042
0.645413
0.250891
0.438993
0.202931
0.427391
0.240112
0.345191
0.305589
0.274239
0.387175
0.241213
0.448233
0.250896
0.579713
0.262414
0.515748
0.364694
0.456886
0.506352
0.379474
0.398014
0.368499
0.210917
0.269867
0.165768
0.328850
0.366074
0.185955
0.487451
0.211616
0.546962
0.207892
0.537554
0.239157
0.503829
0.225734
0.419876
0.262883
0.339302
0.279509
0.256073
0.282075
0.331322
0.195141
0.407096
0.222267
0.326498
0.364348
0.357601
0.415926
0.340133
0.474724
0.328281
0.389507
0.165878
0.446406
0.246414
0.500334
0.202718
0.539483
0.402538
0.463188
3.644360
2.242296
0.657220
0.278566
0.455829
0.237015
0.444071
0.267592
0.364261
0.326900
0.298510
0.405785
0.271211
0.465996
0.280270
0.591879
0.281451
0.521257
0.375123
0.460505
0.513112
0.382365
0.402149
0.370097
0.212414
0.272100
0.165401
0.332489
0.366354
0.196026
0.490448
0.230294
0.556574
0.239323
0.552436
0.272726
0.520328
0.259181
0.438365
0.290380
0.358627
0.292663
0.254964
0.309158
0.320263
0.172304
0.429425
0.216116
0.314361
0.359461
0.355708
0.460240
0.408369
0.498231
0.353918
0.370783
0.178111
0.466034
0.280186
0.517267
0.240423
0.554284
0.421596
0.479391
3.646601
2.246109
0.670773
0.308470
0.475187
0.272305
0.463379
0.297569
0.386280
0.351194
0.325544
0.427001
0.303087
0.486013
0.311240
0.605468
0.302363
0.528400
0.386747
0.465322
0.520193
0.385810
0.406368
0.371938
0.214440
0.274820
0.167120
0.336950
0.368144
0.208416
0.495266
0.251428
0.568282
0.271906
0.569173
0.307075
0.538935
0.293741
0.459311
0.320202
0.381026
0.309945
0.259099
0.336714
0.313868
0.160804
0.410063
0.221782
0.311058
0.363854
0.362900
0.521790
0.493478
0.536099
0.389641
0.357432
0.195595
0.487721
0.314972
0.536414
0.278325
0.571290
0.443167
0.498024
3.649172
2.250467
0.685927
0.340031
0.496778
0.308401
0.485018
0.329401
0.410812
0.377944
0.354761
0.450489
0.336337
0.507969
0.343322
0.620288
0.324715
0.537151
0.399380
0.471305
0.527515
0.389779
0.410625
0.374002
0.216972
0.277994
0.170929
0.342186
0.371531
0.222794
0.501986
0.274519
0.582055
0.305319
0.581517
0.322467
0.558483
0.329081
0.482402
0.351780
0.406041
0.330721
0.268015
0.363339
0.309766
0.158902
0.391663
0.240859
0.319219
0.379130
0.380289
0.571989
0.535340
0.552952
0.438167
0.348008
0.217025
0.498083
0.338240
0.557540
0.316346
0.590312
0.466906
0.518835
3.652076
2.255371
0.702585
0.372829
0.515824
0.338768
0.508691
0.362607
0.437447
0.406677
0.385668
0.463244
0.338112
0.505433
0.321396
0.624724
0.348240
0.547448
0.412935
0.478427
0.535069
0.394270
0.414918
0.376286
0.219994
0.281606
0.176711
0.348172
0.376491
0.238819
0.510545
0.295182
0.577907
0.279325
0.563668
0.287712
0.537942
0.316042
0.482722
0.368012
0.433226
0.354337
0.281010
0.367339
0.306502
0.165804
0.377329
0.272634
0.340302
0.406473
0.409436
0.587778
0.570679
0.565959
0.478252
0.342059
0.242074
0.475635
0.302914
0.539200
0.299473
0.589018
0.473322
0.530845
3.654454
2.256628
0.697007
0.343085
0.493067
0.302827
0.487290
0.343530
0.427722
0.394722
0.360415
0.438464
0.304460
0.484626
0.290646
0.611746
0.348771
0.557981
0.426809
0.486671
0.542924
0.399313
0.419286
0.377247
0.221671
0.284172
0.184265
0.354912
0.382902
0.250835
0.511178
0.269846
0.563208
0.245791
0.547532
0.253610
0.519270
0.280728
0.459611
0.335815
0.417796
0.380192
0.297240
0.342672
0.303608
0.181637
0.366749
0.314185
0.372907
0.444201
0.448851
0.609900
0.610707
0.584447
0.485897
0.340229
0.271015
0.455198
0.268335
0.519755
0.261623
0.570243
0.449286
0.509184
3.651820
2.252370
0.683140
0.312106
0.472232
0.267420
0.465712
0.311385
0.401942
0.366704
0.330446
0.415602
0.271905
0.465852
0.261412
0.600117
0.329382
0.546137
0.417298
0.488688
0.551115
0.404921
0.423752
0.375624
0.218959
0.281312
0.180950
0.359716
0.376607
0.233565
0.498461
0.245692
0.550400
0.212996
0.533291
0.220403
0.502676
0.246104
0.438549
0.304979
0.391345
0.407905
0.316166
0.320942
0.302415
0.206564
0.360275
0.361757
0.413459
0.488393
0.494471
0.636845
0.652679
0.609350
0.495934
0.344155
0.304015
0.437009
0.234846
0.502455
0.223850
0.553439
0.427252
0.489473
3.649507
2.248649
0.670899
0.282717
0.453618
0.232851
0.446338
0.280708
0.378226
0.340619
0.302251
0.394996
0.240884
0.449420
0.234312
0.590009
0.311708
0.535626
0.408932
0.481537
0.558020
0.411040
0.425604
0.374242
0.216741
0.278917
0.172404
0.354845
0.367176
0.217489
0.487159
0.223092
0.539536
0.181255
0.521093
0.188433
0.488342
0.212491
0.419851
0.275987
0.367040
0.393627
0.338022
0.300808
0.305606
0.239838
0.358607
0.387320
0.457616
0.525351
0.541116
0.664842
0.692053
0.639131
0.509262
0.355298
0.340272
0.421327
0.202932
0.487521
0.186209
0.538803
0.407565
0.471978
3.647504
2.245449
0.660303
0.255466
0.437504
0.199558
0.429476
0.252068
0.357020
0.316993
0.276433
0.377056
0.212128
0.435512
0.210058
0.581356
0.295926
0.526562
0.401662
0.475424
0.556605
0.412806
0.424921
0.373084
0.215021
0.276972
0.165541
0.350668
0.359092
0.202946
0.477546
0.202669
0.530877
0.151365
0.511061
0.158561
0.476493
0.180490
0.403855
0.249504
0.345390
0.365851
0.363194
0.281644
0.316348
0.280190
0.362521
0.356655
0.427067
0.492785
0.522684
0.690110
0.724877
0.670160
0.525255
0.373869
0.342909
0.408503
0.173462
0.475169
0.148772
0.526508
0.390579
0.456957
3.645813
2.242771
0.651422
0.231170
0.424205
0.168375
0.415471
0.226326
0.338861
0.296492
0.253805
0.362229
0.186762
0.424357
0.189711
0.574170
0.282333
0.519059
0.395511
0.470402
0.555386
0.410362
0.424252
0.372142
0.213806
0.275479
0.160621
0.347208
0.352530
0.190350
0.469824
0.185235
0.524609
0.124772
0.503322
0.132301
0.467338
0.151198
0.390918
0.226476
0.326994
0.339878
0.391984
0.263758
0.337454
0.326008
0.373012
0.329166
0.398303
0.463718
0.490127
0.711057
0.749664
0.698767
0.541843
0.398740
0.306655
0.398870
0.147927
0.465612
0.111797
0.516738
0.376685
0.444687
3.644445
2.240632
0.644369
0.210933
0.414023
0.140808
0.404657
0.204665
0.324319
0.279867
0.235349
0.350934
0.166371
0.416197
0.174649
0.568540
0.271327
0.513213
0.390577
0.466532
0.554389
0.408384
0.423610
0.371425
0.213108
0.274450
0.157832
0.344510
0.347585
0.180157
0.464090
0.171727
0.520793
0.103984
0.497977
0.112132
0.461031
0.126529
0.381367
0.208096
0.312478
0.316243
0.367117
0.248595
0.369630
0.367323
0.390571
0.305513
0.373937
0.437667
0.458934
0.698890
0.733750
0.723045
0.556456
0.427826
0.271518
0.392665
0.128641
0.459023
0.075989
0.509647
0.366260
0.435427
3.643420
2.239066
0.639317
0.196104
0.407229
0.119492
0.397325
0.188569
0.313941
0.267882
0.222123
0.343503
0.152887
0.411286
0.166380
0.564666
0.263439
0.509091
0.387062
0.463887
0.553721
0.406942
0.423053
0.370954
0.212947
0.273920
0.157246
0.342648
0.344234
0.172811
0.460284
0.163035
0.519326
0.092631
0.495096
0.101358
0.457634
0.109548
0.375455
0.195688
0.302410
0.295690
0.335449
0.239351
0.410630
0.320517
0.414461
0.286867
0.354628
0.415191
0.429526
0.655826
0.692816
0.703390
0.567425
0.459207
0.238938
0.389977
0.118514
0.455506
0.044199
0.505353
0.359616
0.429388
3.642744
2.238079
0.636324
0.187960
0.403983
0.108146
0.393663
0.179538
0.308151
0.261175
0.215082
0.340168
0.148133
0.409717
0.165834
0.562582
0.258966
0.506742
0.385018
0.462494
0.553391
0.406051
0.422588
0.370731
0.213318
0.273889
0.158873
0.341643
0.342523
0.168691
0.458442
0.159909
0.520192
0.094006
0.494689
0.102770
0.457176
0.103964
0.373325
0.190380
0.297237
0.279241
0.305820
0.239505
0.370471
0.273247
0.442952
0.274921
0.341843
0.398159
0.403916
0.608147
0.642903
0.667871
0.573836
0.438578
0.210153
0.390809
0.119718
0.455095
0.031757
0.503904
0.356944
0.426692
3.642404
2.237651
0.635331
0.187297
0.404329
0.109766
0.393744
0.178600
0.307190
0.260147
0.214831
0.341050
0.152901
0.411414
0.172873
0.562154
0.257913
0.506197
0.384332
0.462336
0.553315
0.405676
0.422162
0.370730
0.214195
0.274321
0.162660
0.341459
0.342577
0.168047
0.458727
0.162719
0.523483
0.107681
0.496722
0.115983
0.459662
0.111443
0.375014
0.192711
0.297218
0.268043
0.280261
0.250264
0.335332
0.229609
0.419394
0.271774
0.337904
0.389966
0.386251
0.557212
0.583795
0.628115
0.575437
0.407386
0.186296
0.395110
0.131852
0.457765
0.053902
0.505294
0.358289
0.427371
3.642397
2.237773
0.636311
0.194139
0.408227
0.123742
0.397540
0.185839
0.311087
0.264844
0.221373
0.346096
0.166311
0.416263
0.186491
0.563313
0.260240
0.507465
0.384952
0.463400
0.553455
0.405805
0.421756
0.370938
0.215555
0.275191
0.168447
0.342074
0.344431
0.170914
0.461182
0.171159
0.529176
0.129753
0.501126
0.137566
0.465019
0.129647
0.380435
0.202357
0.302338
0.262967
0.260861
0.269951
0.310686
0.194265
0.383813
0.279688
0.345508
0.394831
0.382508
0.508042
0.518705
0.584419
0.529332
0.380801
0.168911
0.402709
0.152197
0.463420
0.087223
0.509465
0.363568
0.431382
3.642732
2.238459
0.639290
0.207714
0.415553
0.146504
0.404920
0.200326
0.319640
0.274941
0.234080
0.355076
0.186379
0.424139
0.205291
0.566089
0.265914
0.510520
0.386922
0.465682
0.553854
0.406458
0.421393
0.371356
0.217379
0.276494
0.175979
0.343500
0.347999
0.177096
0.465693
0.184355
0.537088
0.156488
0.507797
0.164020
0.473083
0.154683
0.389382
0.218270
0.312296
0.264333
0.249243
0.295094
0.299281
0.171859
0.359210
0.299622
0.365801
0.378500
0.345166
0.467645
0.453262
0.539753
0.467082
0.359643
0.159649
0.413318
0.177773
0.471895
0.122760
0.516315
0.372570
0.438601
3.643427
2.239733
0.644325
0.226808
0.426114
0.174598
0.415672
0.220604
0.332464
0.289836
0.251951
0.367631
0.211068
0.434896
0.227946
0.570580
0.274866
0.515311
0.390347
0.469178
0.554605
0.407679
0.421125
0.369075
0.216112
0.273348
0.184959
0.345761
0.353111
0.186226
0.472040
0.201229
0.546940
0.185612
0.516607
0.193072
0.483633
0.183614
0.401560
0.239119
0.326583
0.271807
0.245962
0.322796
0.300618
0.166645
0.347749
0.330512
0.385643
0.326616
0.274393
0.442196
0.393940
0.498735
0.399326
0.344918
0.159501
0.426573
0.206449
0.482977
0.158881
0.525701
0.384992
0.448843
3.644478
2.241587
0.651326
0.250090
0.439631
0.205757
0.429502
0.245175
0.349050
0.308791
0.273928
0.383374
0.238875
0.448250
0.253296
0.576675
0.286706
0.521776
0.395127
0.473836
0.555672
0.409444
0.420934
0.365841
0.212527
0.268482
0.192113
0.348814
0.359714
0.197870
0.480173
0.220901
0.558629
0.216091
0.527408
0.223648
0.496477
0.214788
0.416641
0.263662
0.344616
0.284639
0.250507
0.351556
0.312339
0.179410
0.350286
0.310280
0.360220
0.299483
0.232411
0.434711
0.347589
0.466109
0.328502
0.337627
0.168012
0.442166
0.237003
0.496444
0.195143
0.537449
0.400466
0.461867
3.645867
2.243992
0.660131
0.276394
0.455771
0.238652
0.446058
0.272783
0.368822
0.331042
0.299044
0.401889
0.268766
0.463851
0.280442
0.584168
0.300914
0.529834
0.401071
0.479574
0.556965
0.411696
0.420485
0.362873
0.209464
0.264105
0.186248
0.352582
0.367787
0.211576
0.490091
0.242669
0.572108
0.247396
0.540027
0.255190
0.511417
0.247277
0.434263
0.290877
0.365787
0.301933
0.261754
0.380640
0.331616
0.206270
0.365793
0.296299
0.354241
0.301198
0.231111
0.412583
0.318932
0.445768
0.257675
0.338165
0.183369
0.459799
0.268710
0.512053
0.231350
0.551352
0.418581
0.477386
3.647590
2.246932
0.670617
0.304832
0.474190
0.272523
0.464974
0.302491
0.391218
0.355885
0.326481
0.422739
0.300001
0.481383
0.308765
0.592932
0.317078
0.539379
0.408064
0.486317
0.558453
0.414404
0.415189
0.360154
0.206921
0.260207
0.182176
0.357010
0.377216
0.226914
0.501672
0.265937
0.587213
0.279132
0.554275
0.287268
0.528211
0.280501
0.454052
0.319970
0.389496
0.322780
0.278289
0.360262
0.355899
0.241733
0.391570
0.302307
0.366584
0.325241
0.261892
0.396972
0.260590
0.439276
0.191189
0.345970
0.203295
0.479138
0.301071
0.529538
0.267375
0.567186
0.438928
0.495092
3.649653
2.250416
0.682728
0.334774
0.494567
0.306932
0.485902
0.333635
0.415732
0.382721
0.355589
0.445495
0.332050
0.500596
0.332447
0.602954
0.334935
0.550286
0.415205
0.485540
0.556628
0.413103
0.409917
0.357684
0.204905
0.256796
0.179987
0.350110
0.387798
0.243506
0.514668
0.290208
0.603666
0.310971
0.569964
0.319526
0.546589
0.314071
0.475644
0.350349
0.415202
0.346366
0.298707
0.344192
0.383252
0.279501
0.422510
0.323906
0.390632
0.356627
0.301270
0.407533
0.242535
0.444263
0.136735
0.359604
0.225761
0.499831
0.333725
0.548627
0.303131
0.584720
0.461125
0.514689
3.652067
2.254458
0.696426
0.365801
0.514949
0.336160
0.508067
0.365779
0.441953
0.411091
0.385902
0.469797
0.350693
0.487450
0.301384
0.593940
0.345198
0.555314
0.399318
0.477159
0.548503
0.407216
0.404706
0.355473
0.203422
0.253893
0.179673
0.343086
0.384225
0.246869
0.521703
0.292793
0.602566
0.308172
0.578422
0.344864
0.561484
0.338611
0.490949
0.370197
0.438175
0.372058
0.321903
0.333259
0.412253
0.313891
0.451485
0.348428
0.413170
0.377695
0.327445
0.433156
0.261392
0.454799
0.108208
0.377096
0.249249
0.508427
0.334002
0.550572
0.312321
0.593409
0.477422
0.533666
3.654820
2.259035
0.698239
0.345098
0.492552
0.300999
0.485227
0.338514
0.422597
0.390515
0.362568
0.449011
0.320509
0.466308
0.271497
0.577267
0.320367
0.544308
0.384422
0.469916
0.540716
0.401879
0.399617
0.353536
0.202470
0.251521
0.181127
0.336853
0.379609
0.230786
0.514045
0.272014
0.593388
0.282429
0.562374
0.317301
0.543883
0.306863
0.469034
0.339973
0.412077
0.399397
0.347227
0.327130
0.441664
0.340175
0.471063
0.363087
0.422565
0.378774
0.330848
0.387397
0.209703
0.463594
0.113222
0.396326
0.272778
0.490802
0.304665
0.532461
0.277818
0.575431
0.454271
0.512601
3.654560
2.254513
0.681658
0.314133
0.472137
0.266618
0.464414
0.307334
0.397812
0.363776
0.334470
0.427638
0.291922
0.447120
0.243006
0.561866
0.296596
0.534784
0.370497
0.463816
0.533205
0.397070
0.394613
0.351853
0.202027
0.249652
0.184270
0.331402
0.376436
0.216238
0.508053
0.253151
0.585996
0.258619
0.547958
0.291266
0.528103
0.276324
0.449128
0.311413
0.388137
0.410995
0.374203
0.325514
0.470402
0.354322
0.474651
0.321228
0.349160
0.313909
0.256958
0.345114
0.147701
0.464139
0.134191
0.415306
0.295764
0.475096
0.276895
0.516299
0.244019
0.559352
0.433119
0.493504
3.651541
2.249793
0.666583
0.284753
0.453923
0.233270
0.445867
0.277929
0.375342
0.339297
0.308519
0.408554
0.265402
0.430048
0.216300
0.547729
0.274023
0.526808
0.357542
0.458863
0.525920
0.392772
0.389662
0.350404
0.202065
0.248260
0.188981
0.326725
0.374780
0.203525
0.503846
0.236646
0.580503
0.237304
0.535270
0.267204
0.514299
0.247393
0.431469
0.284957
0.366740
0.386077
0.402373
0.327886
0.497483
0.351584
0.457924
0.240163
0.307163
0.348808
0.297953
0.380547
0.169358
0.452864
0.151183
0.432290
0.317906
0.461442
0.251148
0.502238
0.211163
0.545304
0.414225
0.476573
3.648864
2.245626
0.653109
0.257440
0.438140
0.201370
0.429835
0.250853
0.355580
0.317548
0.285239
0.392046
0.241536
0.415290
0.191968
0.534925
0.252923
0.520426
0.345641
0.455068
0.518870
0.388994
0.384768
0.349181
0.202558
0.247327
0.195071
0.322836
0.374627
0.192961
0.501437
0.222948
0.576915
0.219097
0.524395
0.245606
0.502588
0.220602
0.416292
0.261160
0.348296
0.363590
0.431330
0.333525
0.520571
0.324468
0.422050
0.307864
0.451090
0.584983
0.560508
0.536309
0.318655
0.431612
0.155239
0.445913
0.339191
0.449924
0.227989
0.490403
0.179629
0.533401
0.397856
0.462001
3.646542
2.242031
0.641377
0.232806
0.424984
0.171524
0.416526
0.226793
0.338898
0.299003
0.265177
0.378325
0.220944
0.403047
0.170804
0.523626
0.233763
0.515641
0.334992
0.452439
0.512145
0.385775
0.379980
0.348187
0.203477
0.246847
0.202290
0.319770
0.375845
0.184815
0.500680
0.212390
0.573375
0.204497
0.515373
0.226879
0.493003
0.196571