# vtk DataFile Version 2.0
Comment goes here
ASCII
DATASET UNSTRUCTURED_GRID
POINTS 6500 float
47.627109 1.057081 10.236957 
46.204489 1.062153 10.280016 
44.548932 1.068023 10.331965 
42.946927 1.073261 10.385385 
41.495741 1.075563 10.414429 
39.956706 1.076604 10.418609 
38.415913 1.078324 10.410333 
36.881618 1.080533 10.396112 
35.347643 1.081200 10.372320 
33.813714 1.077514 10.334567 
32.285961 1.066474 10.282947 
30.747246 1.049067 10.228337 
29.208963 1.043006 10.216934 
27.692454 1.036277 10.114690 
26.213671 0.990159 9.700651 
24.773814 0.941167 9.197357 
23.418697 0.879291 8.511493 
22.154043 0.799276 7.630400 
20.990942 0.705546 6.664198 
19.873318 0.581144 5.570015 
18.792955 0.449118 4.476094 
17.595067 0.338125 3.466106 
16.315210 0.260308 2.675521 
14.912281 0.206380 2.121234 
13.391044 0.189997 1.952852 
11.932749 0.221808 2.279810 
10.564209 0.286522 2.942330 
9.290110 0.381611 3.857185 
8.191083 0.498931 4.908083 
7.067060 0.621386 5.995863 
5.897848 0.727106 6.974844 
4.652478 0.816272 7.880723 
3.365873 0.891492 8.682499 
1.999253 0.954587 9.350315 
0.527896 0.991681 9.800900 
-0.972021 1.017509 10.088325 
-2.493628 1.040134 10.254162 
-4.027281 1.054968 10.323134 
-5.559618 1.061502 10.344581 
-7.095243 1.068628 10.355605 
-8.632327 1.080435 10.366579 
-10.154471 1.088338 10.335756 
-11.682298 1.093906 10.181796 
-13.192864 1.106996 9.894027 
-14.681510 1.124577 9.535859 
-16.167587 1.126564 9.145792 
-17.664504 1.117686 8.773333 
-19.164301 1.116584 8.530078 
-20.695599 1.124071 8.419687 
-22.228937 1.126983 8.338831 
-23.761049 1.140423 8.320186 
-25.294317 1.167976 8.393721 
-26.814708 1.183760 8.557726 
-28.310098 1.162467 8.877892 
-29.775757 1.114764 9.346154 
-31.240297 1.072234 9.804691 
-32.728172 1.038819 10.137956 
-34.253440 1.034013 10.299400 
-35.794917 1.048523 10.349807 
-37.320817 1.057542 10.373861 
-38.853435 1.064392 10.393978 
-40.389573 1.069730 10.410353 
-41.877341 1.073182 10.418622 
-43.554422 1.075477 10.416631 
47.627109 1.651816 10.129993 
46.204489 1.657137 10.173007 
44.548932 1.663297 10.224904 
42.946927 1.668778 10.278280 
41.495741 1.671012 10.307337 
39.956706 1.671670 10.311586 
38.415913 1.672865 10.303403 
36.881618 1.674504 10.289285 
35.347643 1.674534 10.265608 
33.813714 1.670039 10.228001 
32.285961 1.657820 10.176592 
30.747246 1.638551 10.122318 
29.208963 1.628700 10.111596 
27.692454 1.611284 10.011274 
26.213671 1.541751 9.601446 
24.773814 1.458059 9.104393 
23.418697 1.351726 8.426525 
22.154043 1.220282 7.554682 
20.990942 1.073748 6.597976 
19.873318 0.896534 5.513292 
18.792955 0.713525 4.428540 
17.595067 0.548544 3.428262 
16.315210 0.423140 2.646236 
14.912281 0.335478 2.098015 
13.391044 0.308848 1.931476 
11.932749 0.360557 2.254855 
10.564209 0.465352 2.910167 
9.290110 0.610418 3.816034 
8.191083 0.778043 4.857884 
7.067060 0.954225 5.936001 
5.897848 1.114459 6.905178 
4.652478 1.258388 7.801208 
3.365873 1.383470 8.594016 
1.999253 1.488502 9.254290 
0.527896 1.556506 9.699315 
-0.972021 1.600551 9.983464 
-2.493628 1.631093 10.147877 
-4.027281 1.648356 10.216412 
-5.559618 1.655481 10.237753 
-7.095243 1.662257 10.248839 
-8.632327 1.672324 10.260127 
-10.154471 1.674923 10.230258 
-11.682298 1.667852 10.078570 
-13.192864 1.660369 9.794502 
-14.681510 1.653950 9.440650 
-16.167587 1.635716 9.054220 
-17.664504 1.611872 8.684452 
-19.164301 1.600688 8.443011 
-20.695599 1.601341 8.333849 
-22.228937 1.599171 8.253907 
-23.761049 1.609050 8.235902 
-25.294317 1.635677 8.309604 
-26.814708 1.657896 8.472452 
-28.310098 1.656178 8.789097 
-29.775757 1.639561 9.251768 
-31.240297 1.630563 9.704275 
-32.728172 1.620558 10.033330 
-34.253440 1.625505 10.193019 
-35.794917 1.642264 10.243022 
-37.320817 1.652295 10.266894 
-38.853435 1.659786 10.286895 
-40.389573 1.665481 10.303206 
-41.877341 1.669050 10.311454 
-43.554422 1.671275 10.309476 
47.627109 2.186626 10.001216 
46.204489 2.192171 10.044176 
44.548932 2.198593 10.096010 
42.946927 2.204292 10.149333 
41.495741 2.206465 10.178405 
39.956706 2.206777 10.182737 
38.415913 2.207501 10.174668 
36.881618 2.208628 10.160673 
35.347643 2.208084 10.137134 
33.813714 2.202862 10.099702 
32.285961 2.189583 10.048549 
30.747246 2.168639 9.994678 
29.208963 2.155380 9.984776 
27.692454 2.128353 9.886769 
26.213671 2.037766 9.482010 
24.773814 1.922870 8.992471 
23.418697 1.776558 8.324229 
22.154043 1.598869 7.463522 
20.990942 1.404851 6.518250 
19.873318 1.180145 5.445001 
18.792955 0.951290 4.371288 
17.595067 0.737761 3.382700 
16.315210 0.569566 2.610978 
14.912281 0.451569 2.070061 
13.391044 0.415724 1.905742 
11.932749 0.485327 2.224812 
10.564209 0.626164 2.871445 
9.290110 0.816171 3.766490 
8.191083 1.029032 4.797449 
7.067060 1.253528 5.863932 
5.897848 1.462783 6.821305 
4.652478 1.655957 7.705477 
3.365873 1.825877 8.487489 
1.999253 1.968621 9.138682 
0.527896 2.064421 9.577014 
-0.972021 2.124848 9.857219 
-2.493628 2.162508 10.019917 
-4.027281 2.181955 10.087926 
-5.559618 2.189612 10.109139 
-7.095243 2.196073 10.120301 
-8.632327 2.204575 10.131966 
-10.154471 2.202405 10.103245 
-11.682298 2.183969 9.954294 
-13.192864 2.157985 9.674680 
-14.681510 2.129985 9.326026 
-16.167587 2.093567 8.943974 
-17.664504 2.056266 8.577447 
-19.164301 2.036015 8.338188 
-20.695599 2.030522 8.230506 
-22.228937 2.023783 8.151664 
-23.761049 2.030460 8.134431 
-25.294317 2.056254 8.208333 
-26.814708 2.084259 8.369788 
-28.310098 2.100144 8.682194 
-29.775757 2.111480 9.138134 
-31.240297 2.132636 9.583380 
-32.728172 2.143682 9.907366 
-34.253440 2.157400 10.064943 
-35.794917 2.176181 10.114459 
-37.320817 2.187123 10.138112 
-38.853435 2.195189 10.157975 
-40.389573 2.201206 10.174209 
-41.877341 2.204878 10.182432 
-43.554422 2.207043 10.180468 
47.627109 2.837774 9.834518 
46.204489 2.843593 9.877408 
44.548932 2.850332 9.929161 
42.946927 2.856297 9.982416 
41.495741 2.858396 10.011506 
39.956706 2.858286 10.015947 
38.415913 2.858437 10.008025 
36.881618 2.858940 9.994189 
35.347643 2.857698 9.970829 
33.813714 2.851591 9.933623 
32.285961 2.837022 9.882801 
30.747246 2.814037 9.829452 
29.208963 2.796630 9.820612 
27.692454 2.757902 9.725601 
26.213671 2.641679 9.327405 
24.773814 2.488791 8.847592 
23.418697 2.293806 8.191811 
22.154043 2.059809 7.345518 
20.990942 1.807978 6.415047 
19.873318 1.525451 5.356600 
18.792955 1.240777 4.297178 
17.595067 0.968139 3.323722 
16.315210 0.747844 2.565337 
14.912281 0.592913 2.033877 
13.391044 0.545848 1.872429 
11.932749 0.637237 2.185922 
10.564209 0.821958 2.821320 
9.290110 1.066682 3.702358 
8.191083 1.334620 4.719216 
7.067060 1.617939 5.770640 
5.897848 1.886879 6.712734 
4.652478 2.140010 7.581556 
3.365873 2.364521 8.349593 
1.999253 2.553181 8.989031 
0.527896 2.682822 9.418700 
-0.972021 2.763194 9.693798 
-2.493628 2.809522 9.854278 
-4.027281 2.831628 9.921606 
-5.559618 2.839933 9.942653 
-7.095243 2.846011 9.953913 
-8.632327 2.852608 9.966066 
-10.154471 2.844630 9.938831 
-11.682298 2.812356 9.793423 
-13.192864 2.763847 9.519576 
-14.681510 2.709571 9.177648 
-16.167587 2.651014 8.801264 
-17.664504 2.597329 8.438931 
-19.164301 2.566039 8.202499 
-20.695599 2.553062 8.096733 
-22.228937 2.540760 8.019315 
-23.761049 2.543539 8.003079 
-25.294317 2.568319 8.077241 
-26.814708 2.603369 8.236893 
-28.310098 2.640686 8.543812 
-29.775757 2.686056 8.991039 
-31.240297 2.743926 9.426886 
-32.728172 2.780601 9.744311 
-34.253440 2.804998 9.899154 
-35.794917 2.826240 9.948040 
-37.320817 2.838291 9.971409 
-38.853435 2.847058 9.991092 
-40.389573 2.853468 10.007226 
-41.877341 2.857266 10.015417 
-43.554422 2.859356 10.013472 
47.627109 3.495026 9.642495 
46.204489 3.501120 9.685305 
44.548932 3.508180 9.736964 
42.946927 3.514413 9.790141 
41.495741 3.516437 9.819253 
39.956706 3.515903 9.823817 
38.415913 3.515475 9.816064 
36.881618 3.515349 9.802412 
35.347643 3.513402 9.779258 
33.813714 3.506402 9.742314 
32.285961 3.490529 9.691872 
30.747246 3.465486 9.639124 
29.208963 3.443890 9.631508 
27.692454 3.393351 9.539948 
26.213671 3.251253 9.149311 
24.773814 3.060018 8.680702 
23.418697 2.815901 8.039275 
22.154043 2.525071 7.209587 
20.990942 2.214885 6.296165 
19.873318 1.873994 5.254770 
18.792955 1.532977 4.211809 
17.595067 1.200677 3.255784 
16.315210 0.927793 2.512764 
14.912281 0.735582 1.992194 
13.391044 0.677192 1.834056 
11.932749 0.790571 2.141124 
10.564209 1.019587 2.763581 
9.290110 1.319540 3.628483 
8.191083 1.643072 4.629099 
7.067060 1.985766 5.663176 
5.897848 2.314950 6.587668 
4.652478 2.628601 7.438809 
3.365873 2.908214 8.190747 
1.999253 3.143220 8.816645 
0.527896 3.307020 9.236334 
-0.972021 3.407525 9.505550 
-2.493628 3.462602 9.663474 
-4.027281 3.487392 9.730018 
-5.559618 3.496349 9.750874 
-7.095243 3.502041 9.762247 
-8.632327 3.506715 9.774962 
-10.154471 3.492875 9.749440 
-11.682298 3.446635 9.608112 
-13.192864 3.375390 9.340907 
-14.681510 3.294590 9.006728 
-16.167587 3.213687 8.636874 
-17.664504 3.143463 8.279372 
-19.164301 3.101031 8.046195 
-20.695599 3.080501 7.942636 
-22.228937 3.062584 7.866859 
-23.761049 3.061428 7.851773 
-25.294317 3.085184 7.926234 
-26.814708 3.127345 8.083808 
-28.310098 3.186295 8.384407 
-29.775757 3.266019 8.821598 
-31.240297 3.360945 9.246618 
-32.728172 3.423491 9.556484 
-34.253440 3.458666 9.708178 
-35.794917 3.482394 9.756338 
-37.320817 3.495564 9.779380 
-38.853435 3.505038 9.798857 
-40.389573 3.511844 9.814874 
-41.877341 3.515770 9.823028 
-43.554422 3.517784 9.821105 
47.627109 4.089712 9.421525 
46.204489 4.096055 9.464242 
44.548932 4.103406 9.515793 
42.946927 4.109882 9.568880 
41.495741 4.111838 9.598017 
39.956706 4.110920 9.602724 
38.415913 4.109967 9.595166 
36.881618 4.109272 9.581726 
35.347643 4.106687 9.558809 
33.813714 4.098878 9.522165 
32.285961 4.081827 9.472161 
30.747246 4.054921 9.420105 
29.208963 4.029536 9.413897 
27.692454 3.968310 9.326308 
26.213671 3.802800 8.944371 
[...]
POINT_DATA 6500
SCALARS sample_scalars float 1
LOOKUP_TABLE my_table
3.686396
2.308869
0.907442
0.607224
0.695889
0.604827
0.753294
0.588022
0.686091
0.541753
0.575532
0.479412
0.554696
0.731574
0.648700
0.904060
0.845867
0.851973
0.811878
0.612092
0.642925
0.339625
0.485575
0.301944
0.316539
0.193344
0.267181
0.260479
0.434169
0.270479
0.590155
0.332511
0.593011
0.436781
0.487785
0.482343
0.496511
0.631852
0.544500
0.693503
0.556525
0.776497
0.656117
0.884577
1.054376
1.207437
0.948473
0.761524
0.542990
0.603318
0.411584
0.670957
0.521548
0.683016
0.639874
0.618064
0.518263
0.684784
0.540161
0.762289
0.580968
0.756938
0.713704
0.729234
3.685079
2.306793
0.902206
0.600473
0.690024
0.598206
0.748252
0.581989
0.681226
0.535588
0.569106
0.470224
0.546611
0.725494
0.642522
0.901147
0.842904
0.851098
0.810530
0.610658
0.641387
0.335054
0.486234
0.300978
0.315126
0.190050
0.264463
0.255812
0.432318
0.268280
0.588950
0.328451
0.588192
0.429303
0.477726
0.471389
0.485989
0.624303
0.536194
0.687625
0.550722
0.774050
0.660908
0.885078
1.034105
1.174153
0.914938
0.724276
0.500808
0.584694
0.386146
0.648251
0.500897
0.666989
0.617320
0.616200
0.523551
0.676791
0.530259
0.755763
0.572860
0.751037
0.707685
0.723572
3.685386
2.307213
0.903074
0.606474
0.695302
0.604368
0.753160
0.588162
0.686466
0.542550
0.576676
0.481239
0.556772
0.729484
0.648953
0.907907
0.844158
0.855315
0.809066
0.612142
0.637413
0.333716
0.483232
0.299622
0.315109
0.189700
0.268997
0.258019
0.442048
0.280508
0.601441
0.344473
0.593425
0.445021
0.488456
0.485266
0.497131
0.631903
0.544325
0.693608
0.557620
0.774050
0.634790
0.891185
1.025022
1.127735
0.830821
0.708899
0.479931
0.579041
0.377011
0.629595
0.491948
0.657038
0.586369
0.639204
0.499610
0.684245
0.539953
0.761810
0.580096
0.756190
0.712912
0.728522
3.685435
2.307379
0.903756
0.607673
0.696592
0.606001
0.754592
0.590150
0.688184
0.544406
0.577692
0.481348
0.557317
0.730652
0.650097
0.909804
0.846092
0.858060
0.810749
0.613035
0.637224
0.332630
0.483104
0.299275
0.314646
0.188710
0.266724
0.256389
0.442952
0.285310
0.605198
0.349216
0.594953
0.446350
0.487760
0.483923
0.496542
0.632128
0.544992
0.694583
0.559907
0.774896
0.631950
0.882340
1.011469
1.092598
0.776811
0.696400
0.474137
0.593158
0.406038
0.644013
0.514042
0.665788
0.589775
0.644184
0.500880
0.683623
0.539903
0.762112
0.580876
0.757045
0.714005
0.729706
3.688556
2.312730
0.918429
0.624760
0.712385
0.624302
0.769305
0.608632
0.703575
0.562318
0.592346
0.496132
0.571481
0.747165
0.664775
0.918749
0.860340
0.867336
0.822341
0.619191
0.645741
0.337454
0.488511
0.302446
0.315573
0.191299
0.261145
0.258999
0.440429
0.297662
0.607981
0.363218
0.608854
0.457046
0.501137
0.494462
0.511227
0.645813
0.561923
0.708663
0.578596
0.788557
0.643270
0.880132
0.982916
1.067220
0.740640
0.697217
0.483958
0.617143
0.448015
0.669836
0.548411
0.683674
0.608791
0.659290
0.519289
0.694904
0.556192
0.774703
0.598327
0.771164
0.729354
0.744827
3.692806
2.319937
0.937718
0.651118
0.736732
0.652268
0.792029
0.636683
0.727246
0.590185
0.617000
0.523696
0.597803
0.771603
0.688840
0.935826
0.879763
0.882614
0.835884
0.628306
0.653769
0.342890
0.493464
0.305637
0.316866
0.194576
0.258172
0.264553
0.445595
0.321778
0.622154
0.392602
0.630828
0.483228
0.527035
0.519498
0.539005
0.669605
0.589848
0.731506
0.607429
0.804752
0.646687
0.858181
0.933297
1.029534
0.714814
0.669307
0.513672
0.649485
0.495691
0.697542
0.585009
0.704903
0.623659
0.682787
0.528195
0.716314
0.584863
0.796018
0.626286
0.793497
0.753182
0.768115
3.700060
2.332092
0.969238
0.687375
0.761209
0.677314
0.814205
0.668061
0.760053
0.637263
0.666559
0.578129
0.626189
0.774576
0.690900
0.921110
0.850493
0.858942
0.818700
0.630642
0.659425
0.348033
0.495753
0.307809
0.318537
0.198292
0.262467
0.276439
0.449238
0.287133
0.604544
0.372975
0.628744
0.502577
0.565173
0.567880
0.582002
0.703231
0.627875
0.762302
0.641318
0.835491
0.655130
0.821912
0.874606
0.962314
0.720589
0.625286
0.469669
0.655391
0.522229
0.733982
0.625875
0.735712
0.646110
0.630929
0.536774
0.742089
0.609544
0.816742
0.653485
0.815049
0.776032
0.792307
3.698921
2.326365
0.943583
0.649079
0.726246
0.637621
0.781506
0.627867
0.725251
0.596182
0.628901
0.536387
0.587729
0.741027
0.657886
0.900644
0.826083
0.842867
0.800860
0.618141
0.660726
0.350070
0.496485
0.308617
0.319248
0.199829
0.264824
0.282178
0.442331
0.260745
0.593822
0.336839
0.599049
0.464870
0.526729
0.529034
0.540823
0.667913
0.587219
0.728596
0.599657
0.808243
0.660911
0.799978
0.831523
0.919021
0.677104
0.611019
0.449519
0.648166
0.516939
0.760003
0.629040
0.718925
0.659903
0.606408
0.544221
0.708973
0.568461
0.785767
0.613527
0.782871
0.741851
0.758760
3.692971
2.316593
0.918310
0.614244
0.694885
0.601604
0.752451
0.591391
0.694153
0.558710
0.594909
0.498202
0.553364
0.710863
0.628702
0.884308
0.804574
0.830486
0.784532
0.607334
0.656322
0.352415
0.497338
0.309553
0.320070
0.201597
0.267517
0.280052
0.438884
0.240648
0.589513
0.307531
0.572886
0.432448
0.491699
0.493980
0.503125
0.636210
0.550066
0.698517
0.561890
0.778912
0.665350
0.788020
0.807078
0.895656
0.627914
0.612079
0.447743
0.653146
0.527370
0.771222
0.648960
0.715675
0.656242
0.589076
0.557010
0.679588
0.531023
0.758302
0.577109
0.754189
0.711223
0.728740
3.687734
2.307993
0.895634
0.583607
0.667739
0.570082
0.727572
0.559484
0.667378
0.525739
0.565343
0.464545
0.523981
0.684646
0.603992
0.872353
0.786295
0.821987
0.769898
0.598348
0.649448
0.355111
0.498352
0.310645
0.321014
0.203619
0.270502
0.271880
0.438896
0.228484
0.580705
0.287131
0.550839
0.406590
0.460945
0.463637
0.469841
0.608778
0.517284
0.672643
0.528977
0.753005
0.605946
0.787113
0.799437
0.888268
0.598234
0.625766
0.461621
0.668352
0.550567
0.792885
0.682775
0.723691
0.643119
0.579571
0.574504
0.654538
0.498157
0.734819
0.545060
0.729509
0.684729
0.702801
3.683242
2.300626
0.875891
0.557986
0.645453
0.543972
0.707409
0.533097
0.645567
0.498288
0.541019
0.436548
0.500527
0.662974
0.584414
0.864969
0.771589
0.817505
0.757169
0.591308
0.642819
0.358109
0.499492
0.311869
0.322071
0.205866
0.273803
0.264556
0.442242
0.225474
0.569660
0.277535
0.533509
0.388580
0.435454
0.439014
0.442058
0.586303
0.489871
0.651570
0.502000
0.725684
0.553561
0.795923
0.731416
0.854098
0.585284
0.649957
0.488721
0.692684
0.584571
0.823000
0.727758
0.741409
0.642446
0.577054
0.539518
0.634405
0.470932
0.715796
0.518317
0.709348
0.662975
0.681517
3.679456
2.294434
0.859083
0.537790
0.628266
0.523744
0.692121
0.512747
0.628973
0.476977
0.522388
0.415020
0.483546
0.646017
0.570210
0.862087
0.760439
0.816944
0.746296
0.586186
0.636368
0.356123
0.499831
0.312236
0.322391
0.206542
0.273229
0.258093
0.448806
0.231656
0.562233
0.279464
0.521101
0.379211
0.415868
0.420811
0.420516
0.569098
0.468426
0.635519
0.481604
0.704304
0.509233
0.749233
0.677515
0.817165
0.586146
0.682698
0.526595
0.725347
0.627893
0.860148
0.781364
0.767756
0.651996
0.580836
0.499315
0.619378
0.450002
0.701354
0.497393
0.693849
0.646167
0.665072
3.676341
2.289362
0.845192
0.523343
0.616331
0.509764
0.681788
0.498840
0.617756
0.462330
0.509799
0.400669
0.473418
0.633869
0.561502
0.855435
0.752781
0.820143
0.737217
0.582940
0.630039
0.352902
0.498683
0.310994
0.321309
0.204250
0.270124
0.252508
0.458398
0.246021
0.558370
0.292296
0.513711
0.378799
0.402730
0.409583
0.405864
0.557382
0.453459
0.624624
0.468297
0.688906
0.473729
0.709387
0.637271
0.793229
0.597881
0.689272
0.572138
0.764651
0.678032
0.902686
0.840383
0.801979
0.669721
0.590805
0.463793
0.609552
0.435909
0.691548
0.482703
0.683085
0.634433
0.653575
3.673889
2.285398
0.834307
0.514974
0.609815
0.502377
0.676505
0.491746
0.612074
0.454811
0.503549
0.394077
0.470388
0.626674
0.558384
0.844407
0.729077
0.798267
0.712783
0.581551
0.623848
0.349952
0.497625
0.309858
0.320330
0.202157
0.267371
0.247848
0.470721
0.239560
0.545514
0.314372
0.511410
0.387106
0.396490
0.405706
0.398658
0.551355
0.445439
0.619024
0.462491
0.679526
0.447888
0.678369
0.609616
0.780087
0.617791
0.681704
0.586902
0.801558
0.731768
0.948161
0.901111
0.842612
0.693907
0.607356
0.433029
0.605019
0.429119
0.686449
0.474649
0.677155
0.627921
0.647159
3.672109
2.282563
0.826584
0.512927
0.608844
0.501809
0.676341
0.491687
0.612022
0.454693
0.503787
0.395502
0.474464
0.624572
0.560871
0.823139
0.683690
0.774280
0.678894
0.582014
0.617876
0.347324
0.496699
0.308859
0.319466
0.200298
0.264947
0.244179
0.485396
0.196705
0.507918
0.311081
0.514195
0.403347
0.397360
0.409230
0.399182
0.551129
0.444657
0.618801
0.464369
0.676131
0.432342
0.655972
0.592978
0.774901
0.643551
0.677968
0.572223
0.789238
0.720541
0.993159
0.949677
0.887290
0.722658
0.630703
0.407518
0.605816
0.429874
0.686108
0.473497
0.676142
0.626747
0.645932
3.671003
2.280856
0.822099
0.517144
0.613323
0.507934
0.681185
0.498509
0.617475
0.461813
0.510349
0.404648
0.485267
0.627515
0.568746
0.776505
0.640871
0.754543
0.646458
0.578450
0.612189
0.345061
0.495936
0.308017
0.318725
0.198698
0.262826
0.241539
0.502045
0.157430
0.472937
0.262854
0.502455
0.426320
0.405102
0.419742
0.407203
0.556571
0.450983
0.623837
0.473655
0.678493
0.427110
0.641643
0.585312
0.775032
0.637228
0.676721
0.560866
0.778478
0.709753
0.996155
0.951548
0.929242
0.753831
0.615775
0.388067
0.611791
0.437942
0.690419
0.479141
0.679959
0.630826
0.649811
3.670508
2.280178
0.820593
0.527000
0.617351
0.502561
0.678036
0.501325
0.627886
0.475336
0.522565
0.420508
0.501899
0.577064
0.522205
0.731692
0.601136
0.739293
0.615731
0.561928
0.606693
0.343104
0.495283
0.307297
0.318093
0.197325
0.261060
0.239879
0.502139
0.124632
0.441131
0.220588
0.457262
0.427529
0.418861
0.436299
0.421775
0.567104
0.463608
0.633617
0.474044
0.686059
0.431413
0.634519
0.584962
0.778168
0.616719
0.676450
0.551628
0.768351
0.698658
0.985539
0.948855
0.920009
0.784795
0.586078
0.375214
0.622420
0.452393
0.698939
0.490829
0.688020
0.635607
0.656253
3.670585
2.280454
0.821861
0.496403
0.569215
0.442509
0.635050
0.441709
0.586145
0.448684
0.528732
0.441947
0.466409
0.526118
0.476240
0.688773
0.564811
0.728601
0.586789
0.547386
0.601350
0.341433
0.494718
0.306685
0.317564
0.196169
0.259678
0.239164
0.504675
0.103752
0.412941
0.187649
0.415061
0.389595
0.435427
0.457874
0.441327
0.559503
0.442922
0.606659
0.412901
0.648251
0.444331
0.634092
0.590873
0.782514
0.594126
0.676093
0.543289
0.757794
0.685861
0.970447
0.939370
0.909715
0.811109
0.559283
0.369307
0.614117
0.411455
0.669741
0.439562
0.645423
0.588843
0.610893
3.671206
2.280195
0.789014
0.443979
0.524498
0.383917
0.596001
0.383742
0.544036
0.392866
0.483862
0.398095
0.420757
0.478028
0.434171
0.647900
0.532317
0.722475
0.559753
0.534893
0.596178
0.340061
0.494250
0.306188
0.317143
0.195241
0.258678
0.239367
0.509988
0.101538
0.388893
0.168845
0.376534
0.358260
0.387460
0.445419
0.388683
0.516998
0.386499
0.566674
0.353254
0.607796
0.394912
0.640231
0.566652
0.782015
0.568948
0.675346
0.535348
0.746496
0.671000
0.949914
0.921676
0.896811
0.781229
0.536474
0.370256
0.577658
0.352749
0.633904
0.381143
0.606512
0.545552
0.569096
3.669068
2.268528
0.754203
0.394440
0.483976
0.327302
0.561553
0.328028
0.506456
0.339548
0.443083
0.350282
0.379900
0.433558
0.397002
0.609432
0.504245
0.720861
0.534874
0.524540
0.591275
0.339054
0.493932
0.305842
0.316843
0.194581
0.258015
0.240484
0.517845
0.118279
0.369623
0.168182
0.342692
0.335002
0.342448
0.407982
0.338563
0.478606
0.332004
0.531082
0.295682
0.572010
0.329387
0.618214
0.512345
0.734010
0.542507
0.674211
0.527920
0.734870
0.654662
0.923772
0.895116
0.879903
0.748612
0.518450
0.377465
0.545667
0.295353
0.602367
0.324258
0.571892
0.506462
0.531548
3.662715
2.258191
0.722327
0.348782
0.448587
0.273557
0.532421
0.275594
0.474284
0.289782
0.407382
0.306710
0.345194
0.393750
0.365952
0.573854
0.481245
0.723596
0.512468
0.516397
0.586652
0.338416
0.493767
0.305649
0.316666
0.194195
0.257683
0.242458
0.527916
0.146920
0.355736
0.184968
0.314784
0.321070
0.301398
0.375776
0.291917
0.445177
0.280230
0.500631
0.241232
0.541608
0.263557
0.597039
0.454181
0.681398
0.516259
0.659881
0.521705
0.724025
0.624157
0.892665
0.859733
0.858222
0.711858
0.505382
0.389908
0.518789
0.239780
0.575672
0.269543
0.542223
0.472430
0.499034
3.657139
2.249154
0.693617
0.308181
0.419210
0.223942
0.509163
0.227910
0.448287
0.245023
0.377746
0.268806
0.318062
0.359682
0.342177
0.541535
0.463763
0.706270
0.492744
0.510460
0.582223
0.338090
0.493708
0.305578
0.316599
0.194049
0.257727
0.245189
0.539904
0.181254
0.347562
0.214293
0.294008
0.317072
0.265560
0.349755
0.250013
0.417489
0.232259
0.475939
0.191598
0.517362
0.197712
0.580395
0.395276
0.626278
0.491608
0.606294
0.474666
0.661717
0.539878
0.852760
0.816628
0.831728
0.669884
0.497173
0.403175
0.497503
0.186695
0.554200
0.217829
0.518017
0.444224
0.472225
3.652287
2.241334
0.668132
0.274035
0.396562
0.180493
0.492105
0.187310
0.429031
0.207429
0.355098
0.238446
0.299837
0.332352
0.326566
0.512608
0.451925
0.672513
0.475727
0.506646
0.577950
0.338054
0.493734
0.305614
0.316636
0.194129
0.258162
0.248589
0.547015
0.218090
0.345056
0.251137
0.281264
0.322814
0.236521
0.330837
0.214684
0.396194
0.189798
0.457434
0.149982
0.499955
0.133452
0.569457
0.340008
0.570919
0.469761
0.552234
0.398655
0.598011
0.449443
0.783161
0.724392
0.801297
0.621963
0.493812
0.346729
0.482103
0.137332
0.538143
0.170458
0.499581
0.422429
0.451594
3.648127
2.234683
0.646016
0.248269
0.381325
0.147357
0.481488
0.158045
0.416981
0.180477
0.340318
0.218015
0.291537
0.312891
0.319716
0.487337
0.440544
0.621454
0.434219
0.504874
0.568655
0.338331
0.493868
0.305773
0.316784
0.194452
0.258963
0.252592
0.537422
0.252337
0.347960
0.292053
0.277077
0.337252
0.216305
0.319784
0.188741
0.381893
0.156205
0.445464
0.123051
0.489898
0.076691
0.563508
0.294092
0.517689
0.452749
0.500404
0.320142
0.539049
0.356994
0.702531
0.617235
0.766245
0.567958
0.495383
0.291257
0.472782
0.095561
0.527637
0.130729
0.487173
0.407594
0.437568
3.644639
2.229170
0.627456
0.232927
0.373915
0.131078
0.477342
0.145746
0.412314
0.168245
0.333918
0.209587
0.293332
0.302237
0.321606
0.466079
0.394913
0.571163
0.393327
0.505043
0.557680
0.338980
0.494162
0.306090
0.317057
0.195052
0.260077
0.249929
0.528824
0.254243
0.318335
0.334911
0.281271
0.358732
0.206740
0.316865
0.175393
0.374916
0.136830
0.440150
0.119381
0.487333
0.056978
0.531242
0.263943
0.469379
0.372970
0.454719
0.243609
0.491399
0.271029
0.624251
0.504119
0.691522
0.509562
0.501988
0.237244
0.469517
0.072814
0.522670
0.105789
0.480883
0.400038
0.430373
3.641804
2.224763
0.612616
0.229270
0.374254
0.136246
0.479396
0.153144
0.414774
0.172675
0.335764
0.213603
0.304285
0.300711
0.331465
0.449200
0.354597
0.521819
0.354584
0.507020
0.547073
0.339978
0.494598
0.306553
0.317449
0.195917
0.261516
0.242653
0.521258
0.264505
0.293902
0.378369
0.292901
0.385385
0.208396
0.321632
0.176362
0.375135
0.136346
0.441267
0.139193
0.491902
0.097137
0.481371
0.255082
0.429671
0.296736
0.419672
0.177761
0.461040
0.206292
0.559436
0.389878
0.621179
0.449807
0.513558
0.185793
0.471985
0.083367
0.523013
0.104689
0.480534
0.399674
0.429888
3.639573
2.221383
0.601432
0.236824
0.381664
0.159207
0.487044
0.176354
0.423644
0.191355
0.345051
0.228432
0.322712
0.307644
0.347931
0.436749
0.321104
0.473707
0.318602
0.510622
0.536818
0.341268
0.495131
0.307131
0.317949
0.197010
0.263311
0.236143
0.514680
0.281598
0.276772
0.404851
0.310492
0.415662
0.220091
0.333118
0.190260
0.381926
0.153395
0.448223
0.173176
0.502811
0.154010
0.443750
0.269358
0.402813
0.232792
0.399565
0.141458
0.451088
0.184452
0.515104
0.280511
0.561823
0.392359
0.509649
0.139498
0.479613
0.116593
0.528195
0.126115
0.485630
0.405905
0.435563
3.637894
2.218940
0.593723
0.253664
0.395121
0.192432
0.499527
0.209012
0.437979
0.219640
0.360607
0.251366
0.346788
0.321699
0.369503
0.390889
0.295976
0.426910
0.285976
0.515659
0.526840
0.342832
0.495749
0.307816
0.318551
0.198320
0.265461
0.230386
0.509006
0.303895
0.267742
0.419740
0.332519
0.448407
0.239587
0.350148
0.213631
0.394394
0.181902
0.460248
0.213538
0.519105
0.213047
0.420728
0.303137
0.392603
0.194151
0.396660
0.153808
0.459214
0.208382
0.494455
0.185158
0.520147
0.341568
0.489744
0.104654
0.491718
0.157408
0.537643
0.159844
0.495510
0.417845
0.446609
3.636726
2.217364
0.589323
0.277300
0.413462
0.230493
0.516022
0.246422
0.456745
0.253440
0.381091
0.279673
0.374806
0.341313
0.394765
0.347671
0.280676
0.381481
0.257461
0.521938
0.517145
0.344700
0.496487
0.308628
0.319265
0.199863
0.267924
0.225391
0.504190
0.329983
0.267069
0.440488
0.357625
0.482640
0.264450
0.371426
0.242911
0.411492
0.216384
0.476477
0.256324
0.539768
0.271534
0.413600
0.347218
0.400514
0.195186
0.406597
0.191829
0.474003
0.242509
0.492658
0.119040
0.500879
0.302164
0.480954
0.093211
0.507534
0.200118
0.550726
0.198583
0.509438
0.434484
0.462135
3.636034
2.216589
0.588030
0.305371
0.435486
0.270399
0.535666
0.285808
0.478876
0.289965
0.405152
0.311117
0.405296
0.364926
0.422462
0.309084
0.276097
0.337623
0.234084
0.523542
0.507795
0.346917
0.497385
0.309597
0.320102
0.201667
0.270652
0.221165
0.500198
0.358649
0.274277
0.465873
0.379604
0.517516
0.292579
0.395672
0.275374
0.432114
0.253465
0.495992
0.299582
0.563777
0.328609
0.421817
0.367406
0.404804
0.231730
0.417990
0.219104
0.479566
0.252475
0.498212
0.097640
0.503883
0.277526
0.483255
0.110162
0.526234
0.242699
0.566754
0.238880
0.526620
0.454752
0.481184
3.635778
2.216549
0.589580
0.335966
0.460047
0.310504
0.557601
0.325549
0.503349
0.327430
0.431541
0.344031
0.437041
0.391137
0.451524
0.276470
0.281965
0.295763
0.217023
0.523045
0.498894
0.349443
0.498413
0.310700
0.321053
0.203704
0.273668
0.217698
0.497004
0.388836
0.288182
0.494600
0.380656
0.552309
0.322351
0.421717
0.309149
0.455177
0.291212
0.517873
0.342228
0.590149
0.383828
0.443060
0.407672
0.421178
0.282178
0.418663
0.214123
0.465060
0.216211
0.500293
0.102109
0.484099
0.266956
0.495202
0.143220
0.546975
0.284210
0.585008
0.279068
0.546235
0.477601
0.502799
3.635907
2.217151
0.593582
0.367836
0.486272
0.350051
0.581150
0.364872
0.529393
0.364924
0.459393
0.377499
0.469326
0.395398
0.467044
0.251333
0.296769
0.256476
0.207231
0.524443
0.490378
0.351100
0.499527
0.311908
0.322105
0.205939
0.276994
0.214947
0.491957
0.419694
0.307221
0.525481
0.387751
0.586710
0.352833
0.448845
0.343263
0.479885
0.328728
0.541416
0.383836
0.618146
0.437181
0.474418
0.461002
0.455822
0.328829
0.402874
0.170957
0.438499
0.125451
0.497493
0.103341
0.471523
0.264947
0.514278
0.181372
0.569136
0.324384
0.604916
0.318468
0.567620
0.502205
0.517446
3.636372
2.218311
0.599655
0.400137
0.513465
0.388615
0.605743
0.403326
0.556380
0.401901
0.488042
0.410922
0.501635
0.398138
0.476482
0.235019
0.318489
0.220337
0.205024
0.527551
0.482195
0.347661
0.499791
0.312194
0.322354
0.206464
0.275200
0.212871
0.484993
0.450772
0.329987
0.557773
0.400022
0.620487
0.383408
0.476514
0.377125
0.505594
0.365515
0.566033
0.424164
0.645805
0.488679
0.513047
0.521713
0.499789
0.360770
0.383531
0.149019
0.452951
0.130034
0.508479
0.122138
0.466447
0.263650
0.532435
0.219643
0.592194
0.363092
0.625979
0.356732
0.590206
0.527894
0.528817
3.637131
2.219951
0.607425
0.432226
0.540636
0.409444
0.617647
0.424494
0.582863
0.437935
0.516906
0.443811
0.533507
0.407291
0.490495
0.228450
0.345183
0.188277
0.209996
0.532193
0.474352
0.344486
0.498620
0.310938
0.321269
0.204162
0.272347
0.211433
0.479294
0.481780
0.355340
0.590946
0.416575
0.648118
0.413573
0.504222
0.410266
0.531731
0.401194
0.591181
0.437218
0.660233
0.538257
0.556461
0.585620
0.523908
0.372312
0.405701
0.283826
0.582778
0.364527
0.569437
0.206485
0.475903
0.255770
0.531450
0.255697
0.615645
0.400169
0.647720
0.393579
0.613462
0.554071
0.541894
3.638138
2.221991
0.616516
0.463524
0.550396
0.424198
0.627984
0.439372
0.593040
0.472596
0.545410
0.475667
0.564456
0.421821
0.508203
0.231557
0.375147
0.161887
0.221067
0.538167
0.466936
0.341629
0.497580
0.309816
0.320298
0.202087
0.269785
0.210590
0.474815
0.512401
0.382305
0.624453
0.436426
0.668813
0.442832
0.531433
0.442216
0.557719