# vtk DataFile Version 2.0
Comment goes here
ASCII
DATASET UNSTRUCTURED_GRID
POINTS 6500 float
47.627109 -1.807441 -9.532993 
46.200112 -1.803624 -9.515852 
44.540322 -1.799198 -9.496041 
42.935624 -1.795134 -9.478072 
41.478905 -1.792720 -9.467782 
39.936314 -1.792001 -9.465043 
38.391982 -1.792354 -9.466778 
36.854067 -1.792654 -9.467892 
35.316396 -1.792291 -9.465609 
33.778462 -1.791085 -9.459042 
32.246255 -1.788761 -9.446797 
30.703483 -1.783710 -9.421010 
29.163292 -1.768345 -9.348330 
27.649694 -1.728071 -9.152212 
26.170993 -1.650070 -8.757716 
24.764525 -1.536867 -8.184827 
23.411309 -1.394948 -7.466485 
22.119265 -1.231658 -6.634760 
20.880757 -1.056854 -5.734211 
19.651281 -0.878731 -4.803480 
18.426784 -0.704078 -3.875153 
17.187171 -0.540212 -2.989442 
15.842341 -0.403458 -2.246984 
14.403066 -0.323256 -1.810930 
12.895564 -0.324750 -1.820722 
11.446135 -0.406136 -2.269868 
10.110473 -0.543723 -3.008882 
8.837403 -0.712399 -3.906618 
7.621793 -0.889655 -4.847013 
6.410615 -1.064997 -5.770680 
5.180924 -1.235662 -6.660832 
3.926589 -1.396190 -7.486444 
2.580183 -1.541780 -8.220863 
1.157173 -1.655975 -8.791390 
-0.321668 -1.731530 -9.170750 
-1.839589 -1.769829 -9.365066 
-3.376782 -1.784289 -9.436694 
-4.911510 -1.789344 -9.459610 
-6.450186 -1.789823 -9.460126 
-7.992862 -1.784428 -9.432634 
-9.516884 -1.767105 -9.342384 
-11.029462 -1.724862 -9.114897 
-12.456234 -1.649956 -8.710816 
-13.858574 -1.558018 -8.214621 
-15.272066 -1.468395 -7.736772 
-16.737647 -1.392844 -7.343678 
-18.243183 -1.334527 -7.042638 
-19.754022 -1.293804 -6.828789 
-21.286661 -1.267122 -6.684158 
-22.820059 -1.249626 -6.586582 
-24.352869 -1.238096 -6.522218 
-25.892030 -1.236448 -6.511966 
-27.404193 -1.263326 -6.652895 
-28.797547 -1.343579 -7.093406 
-30.116336 -1.468245 -7.774226 
-31.363961 -1.604208 -8.501912 
-32.748867 -1.719932 -9.105765 
-34.232698 -1.776300 -9.395381 
-35.773111 -1.788759 -9.460015 
-37.302781 -1.792343 -9.477357 
-38.839044 -1.793948 -9.484172 
-40.378938 -1.794755 -9.486992 
-41.870128 -1.795200 -9.488092 
-43.550561 -1.795464 -9.488486 
47.627109 -2.415941 -9.398884 
46.200112 -2.410965 -9.380733 
44.540322 -2.405191 -9.359695 
42.935624 -2.399865 -9.340380 
41.478905 -2.396639 -9.328885 
39.936314 -2.395524 -9.325288 
38.391982 -2.395814 -9.326735 
36.854067 -2.396162 -9.328047 
35.316396 -2.395718 -9.326238 
33.778462 -2.394159 -9.320294 
32.246255 -2.391106 -9.308844 
30.703483 -2.384727 -9.284511 
29.163292 -2.364600 -9.210458 
27.649694 -2.311300 -9.014051 
26.170993 -2.208909 -8.630865 
24.764525 -2.060946 -8.073071 
23.411309 -1.873999 -7.367164 
22.119265 -1.656996 -6.544639 
20.880757 -1.423707 -5.653024 
19.651281 -1.185807 -4.733335 
18.426784 -0.952661 -3.820269 
17.187171 -0.733343 -2.952020 
15.842341 -0.547095 -2.216147 
14.403066 -0.435781 -1.778770 
12.895564 -0.437166 -1.786226 
11.446135 -0.548240 -2.228574 
10.110473 -0.736262 -2.967890 
8.837403 -0.964242 -3.861779 
7.621793 -1.200771 -4.787522 
6.410615 -1.433676 -5.692005 
5.180924 -1.659810 -6.562033 
3.926589 -1.872353 -7.370924 
2.580183 -2.065731 -8.097025 
1.157173 -2.216788 -8.660891 
-0.321668 -2.314838 -9.029658 
-1.839589 -2.363227 -9.214377 
-3.376782 -2.382803 -9.285679 
-4.911510 -2.390652 -9.311725 
-6.450186 -2.392223 -9.315151 
-7.992862 -2.386704 -9.291183 
-9.516884 -2.367300 -9.211168 
-11.029462 -2.316718 -9.009085 
-12.456234 -2.222797 -8.643031 
-13.858574 -2.106088 -8.189724 
-15.272066 -1.991338 -7.745585 
-16.737647 -1.893192 -7.369428 
-18.243183 -1.816326 -7.076852 
-19.754022 -1.763900 -6.873195 
-21.286661 -1.730416 -6.739905 
-22.820059 -1.708661 -6.652119 
-24.352869 -1.695110 -6.595440 
-25.892030 -1.695296 -6.590432 
-27.404193 -1.732218 -6.728687 
-28.797547 -1.833596 -7.130650 
-30.116336 -1.989341 -7.748616 
-31.363961 -2.159526 -8.416380 
-32.748867 -2.303565 -8.977374 
-34.232698 -2.372981 -9.247449 
-35.773111 -2.388158 -9.306863 
-37.302781 -2.393048 -9.324492 
-38.839044 -2.395518 -9.332629 
-40.378938 -2.396832 -9.336712 
-41.870128 -2.397587 -9.338921 
-43.550561 -2.398058 -9.340216 
47.627109 -3.015405 -9.222964 
46.200112 -3.009456 -9.205203 
44.540322 -3.002568 -9.184618 
42.935624 -2.996273 -9.165719 
41.478905 -2.992568 -9.154444 
39.936314 -2.991230 -9.150514 
38.391982 -2.991419 -9.151379 
36.854067 -2.991729 -9.152484 
35.316396 -2.991111 -9.150765 
33.778462 -2.989028 -9.144880 
32.246255 -2.984943 -9.133361 
30.703483 -2.976900 -9.109910 
29.163292 -2.952280 -9.037185 
27.649694 -2.886333 -8.843353 
26.170993 -2.759118 -8.468777 
24.764525 -2.577202 -7.927435 
23.411309 -2.346733 -7.238678 
22.119265 -2.077443 -6.430897 
20.880757 -1.786773 -5.553521 
19.651281 -1.489994 -4.650017 
18.426784 -1.199063 -3.756084 
17.187171 -0.924861 -2.906930 
15.842341 -0.689824 -2.178231 
14.403066 -0.547673 -1.738656 
12.895564 -0.548492 -1.743041 
11.446135 -0.688920 -2.180405 
10.110473 -0.926633 -2.916096 
8.837403 -1.212555 -3.798910 
7.621793 -1.506737 -4.704028 
6.410615 -1.795978 -5.586718 
5.180924 -2.076930 -6.436444 
3.926589 -2.341152 -7.228499 
2.580183 -2.581648 -7.943418 
1.157173 -2.769490 -8.498439 
-0.321668 -2.890451 -8.856202 
-1.839589 -2.948791 -9.030689 
-3.376782 -2.973197 -9.101867 
-4.911510 -2.983724 -9.131135 
-6.450186 -2.986482 -9.137704 
-7.992862 -2.981331 -9.119579 
-9.516884 -2.961110 -9.053473 
-11.029462 -2.904572 -8.876524 
-12.456234 -2.794894 -8.541843 
-13.858574 -2.655902 -8.120993 
-15.272066 -2.517347 -7.703044 
-16.737647 -2.397524 -7.342691 
-18.243183 -2.303227 -7.059242 
-19.754022 -2.240677 -6.867497 
-21.286661 -2.201723 -6.745903 
-22.820059 -2.176633 -6.667028 
-24.352869 -2.162016 -6.619019 
-25.892030 -2.164949 -6.622745 
-27.404193 -2.211815 -6.761249 
-28.797547 -2.332278 -7.131717 
-30.116336 -2.515162 -7.695602 
-31.363961 -2.714590 -8.307748 
-32.748867 -2.882107 -8.821622 
-34.232698 -2.962417 -9.067918 
-35.773111 -2.980147 -9.121938 
-37.302781 -2.985959 -9.139277 
-38.839044 -2.988921 -9.147985 
-40.378938 -2.990417 -9.152483 
-41.870128 -2.991174 -9.154911 
-43.550561 -2.991545 -9.156277 
47.627109 -3.605779 -9.013613 
46.200112 -3.599111 -8.997065 
44.540322 -3.591442 -8.977967 
42.935624 -3.584658 -8.960781 
41.478905 -3.581129 -8.951221 
39.936314 -3.580038 -8.947980 
38.391982 -3.580201 -8.948437 
36.854067 -3.580356 -8.949065 
35.316396 -3.579363 -8.946984 
33.778462 -3.576393 -8.940419 
32.246255 -3.570657 -8.927650 
30.703483 -3.560019 -8.903307 
29.163292 -3.531150 -8.833175 
27.649694 -3.453210 -8.644252 
26.170993 -3.299774 -8.275167 
24.764525 -3.083994 -7.749773 
23.411309 -2.811812 -7.082080 
22.119265 -2.492658 -6.295442 
20.880757 -2.146551 -5.438335 
19.651281 -1.791961 -4.555187 
18.426784 -1.443277 -3.681630 
17.187171 -1.113974 -2.851471 
15.842341 -0.832611 -2.136389 
14.403066 -0.662261 -1.701698 
12.895564 -0.662050 -1.702736 
11.446135 -0.830520 -2.132364 
10.110473 -1.114947 -2.855228 
8.837403 -1.455768 -3.717732 
7.621793 -1.805760 -4.597632 
6.410615 -2.150416 -5.456871 
5.180924 -2.486219 -6.286719 
3.926589 -2.802362 -7.062156 
2.580183 -3.088683 -7.761787 
1.157173 -3.313510 -8.306775 
-0.321668 -3.459820 -8.658115 
-1.839589 -3.529568 -8.826082 
-3.376782 -3.557772 -8.895150 
-4.911510 -3.569803 -8.924813 
-6.450186 -3.573215 -8.932932 
-7.992862 -3.568106 -8.919483 
-9.516884 -3.546918 -8.865123 
-11.029462 -3.485751 -8.710292 
-12.456234 -3.364130 -8.405497 
-13.858574 -3.205189 -8.012274 
-15.272066 -3.042966 -7.614418 
-16.737647 -2.901712 -7.268024 
-18.243183 -2.791750 -6.996095 
-19.754022 -2.720979 -6.818027 
-21.286661 -2.677811 -6.708099 
-22.820059 -2.650206 -6.637476 
-24.352869 -2.635130 -6.597565 
-25.892030 -2.640776 -6.608846 
-27.404193 -2.696382 -6.745674 
-28.797547 -2.835365 -7.091483 
-30.116336 -3.043890 -7.611529 
-31.363961 -3.269086 -8.173789 
-32.748867 -3.456709 -8.642375 
-34.232698 -3.547353 -8.867129 
-35.773111 -3.568267 -8.917737 
-37.302781 -3.574061 -8.933061 
-38.839044 -3.576467 -8.940225 
-40.378938 -3.577292 -8.943375 
-41.870128 -3.577305 -8.944482 
-43.550561 -3.576860 -8.944482 
47.627109 -4.183597 -8.772468 
46.200112 -4.176608 -8.757646 
44.540322 -4.168656 -8.740697 
42.935624 -4.161995 -8.726121 
41.478905 -4.159348 -8.719454 
39.936314 -4.159033 -8.717945 
38.391982 -4.159342 -8.718445 
36.854067 -4.159320 -8.718576 
35.316396 -4.157868 -8.715905 
33.778462 -4.153824 -8.708250 
32.246255 -4.146076 -8.693530 
30.703483 -4.132167 -8.666771 
29.163292 -4.099159 -8.599405 
27.649694 -4.009418 -8.416498 
26.170993 -3.828152 -8.050495 
24.764525 -3.578331 -7.539884 
23.411309 -3.266088 -6.896057 
22.119265 -2.899617 -6.136380 
20.880757 -2.500388 -5.305396 
19.651281 -2.089504 -4.446426 
18.426784 -1.683440 -3.594023 
17.187171 -1.299047 -2.782898 
15.842341 -0.974408 -2.090138 
14.403066 -0.779158 -1.670382 
12.895564 -0.777651 -1.668352 
11.446135 -0.972492 -2.085331 
10.110473 -1.299454 -2.784167 
8.837403 -1.691374 -3.617102 
7.621793 -2.095602 -4.468733 
6.410615 -2.495320 -5.303767 
5.180924 -2.886451 -6.114191 
3.926589 -3.254863 -6.872818 
2.580183 -3.585440 -7.552692 
1.157173 -3.846921 -8.086159 
-0.321668 -4.020640 -8.435996 
-1.839589 -4.103230 -8.602028 
-3.376782 -4.134038 -8.666299 
-4.911510 -4.146161 -8.692643 
-6.450186 -4.149446 -8.699998 
-7.992862 -4.143595 -8.688227 
-9.516884 -4.120494 -8.640380 
-11.029462 -4.055271 -8.503231 
-12.456234 -3.925323 -8.229301 
-13.858574 -3.748426 -7.862373 
-15.272066 -3.562456 -7.480695 
-16.737647 -3.400475 -7.147299 
-18.243183 -3.277226 -6.890292 
-19.754022 -3.199953 -6.727035 
-21.286661 -3.153397 -6.628064 
-22.820059 -3.123860 -6.565012 
-24.352869 -3.108706 -6.531758 
-25.892030 -3.116804 -6.547231 
-27.404193 -3.180083 -6.678776 
-28.797547 -3.337839 -7.005730 
-30.116336 -3.571607 -7.491393 
-31.363961 -3.820047 -8.009745 
-32.748867 -4.025304 -8.438236 
-34.232698 -4.126283 -8.646696 
-35.773111 -4.151179 -8.696511 
-37.302781 -4.155976 -8.707986 
-38.839044 -4.156690 -8.711339 
[...]
POINT_DATA 6500
SCALARS sample_scalars float 1
LOOKUP_TABLE my_table
3.633915
2.206875
0.547460
0.289543
0.391756
0.204481
0.525841
0.210596
0.476979
0.240279
0.433487
0.287605
0.422443
0.223048
0.408910
0.185797
0.299924
0.229311
0.322501
0.377125
0.263082
0.429775
0.276932
0.304995
0.196235
0.356089
0.249570
0.462724
0.237883
0.571714
0.296538
0.561326
0.305937
0.548764
0.288986
0.558787
0.232865
0.554104
0.212065
0.521687
0.306907
0.577443
0.382623
0.380781
0.394956
0.561625
0.954061
1.056686
1.322836
1.348352
1.424813
1.260508
0.958430
0.735666
0.617578
0.413292
0.164871
0.548930
0.210297
0.544161
0.189362
0.490807
0.427455
0.441197
3.634033
2.207028
0.547989
0.292648
0.394852
0.211347
0.528653
0.217300
0.479809
0.245524
0.436230
0.290973
0.426387
0.229511
0.411565
0.189326
0.298864
0.233638
0.323879
0.374411
0.263332
0.433317
0.277229
0.303750
0.197685
0.364630
0.250170
0.454935
0.234369
0.572722
0.303287
0.562183
0.315053
0.550885
0.301129
0.569105
0.251809
0.560098
0.224115
0.525627
0.307056
0.565128
0.366259
0.385260
0.335526
0.450115
0.771157
0.814641
1.112017
1.126202
1.199046
1.080621
0.902485
0.698148
0.624400
0.390201
0.157255
0.556709
0.231255
0.551748
0.208060
0.497669
0.434747
0.442082
3.634160
2.207247
0.548911
0.295016
0.396580
0.214937
0.530331
0.221550
0.481746
0.249440
0.438714
0.294517
0.428940
0.233811
0.414295
0.193667
0.297716
0.241820
0.324363
0.378215
0.266055
0.441147
0.277930
0.302511
0.199594
0.371247
0.250528
0.449016
0.233915
0.573268
0.310006
0.563327
0.320854
0.552363
0.308471
0.576964
0.265183
0.564092
0.230487
0.525861
0.296141
0.546063
0.357766
0.394940
0.270671
0.347204
0.604890
0.591409
0.844041
0.846112
0.982297
0.901927
0.827499
0.635462
0.632882
0.371822
0.152218
0.560992
0.245304
0.557401
0.221514
0.503170
0.440891
0.443658
3.634444
2.207694
0.550538
0.291983
0.393197
0.207659
0.527584
0.215427
0.479134
0.244976
0.436894
0.293054
0.427107
0.233264
0.414971
0.199257
0.296269
0.255589
0.323732
0.390370
0.271286
0.450932
0.279803
0.303007
0.199658
0.370036
0.250418
0.445440
0.235884
0.573685
0.314440
0.564498
0.321775
0.552485
0.303009
0.574797
0.262407
0.562766
0.225865
0.521629
0.278387
0.525209
0.355659
0.402383
0.228972
0.306650
0.429832
0.421245
0.624890
0.613703
0.806062
0.728499
0.746021
0.554495
0.639818
0.357990
0.143732
0.558064
0.238984
0.555715
0.219233
0.502880
0.441326
0.445124
3.634944
2.208468
0.553312
0.284884
0.386074
0.191632
0.521460
0.200500
0.472792
0.232887
0.430884
0.286098
0.421207
0.229543
0.414170
0.205777
0.295716
0.272687
0.323528
0.408252
0.278309
0.459954
0.283284
0.306363
0.197966
0.360818
0.250422
0.446011
0.240557
0.574105
0.316058
0.565742
0.318057
0.551620
0.285867
0.563126
0.244858
0.557183
0.213159
0.515301
0.260655
0.507600
0.358663
0.405197
0.224174
0.345875
0.338335
0.320790
0.479802
0.449718
0.623425
0.525281
0.668040
0.463461
0.637878
0.348188
0.129834
0.546339
0.212283
0.547089
0.201402
0.496870
0.435915
0.446695
3.635428
2.209306
0.556694
0.282955
0.383021
0.183350
0.518304
0.192101
0.469167
0.225001
0.426449
0.279784
0.416165
0.229413
0.416385
0.211473
0.298773
0.283615
0.325627
0.421007
0.284030
0.464874
0.286729
0.310807
0.197776
0.352722
0.251664
0.454625
0.249425
0.574426
0.316599
0.567412
0.312298
0.551377
0.272335
0.554252
0.232631
0.554231
0.207633
0.513065
0.254129
0.498776
0.367015
0.408943
0.241663
0.389230
0.336360
0.277239
0.401464
0.295699
0.482062
0.355558
0.577682
0.372419
0.585355
0.342583
0.117671
0.535583
0.186378
0.539527
0.184312
0.491393
0.430803
0.449566
3.635586
2.209755
0.559148
0.293107
0.389639
0.195603
0.522446
0.202100
0.472779
0.230732
0.428122
0.279582
0.416200
0.237130
0.425680
0.214691
0.307538
0.278499
0.329852
0.417218
0.284406
0.462348
0.287222
0.311644
0.198947
0.354338
0.254994
0.474912
0.264025
0.574567
0.317770
0.569616
0.307063
0.552829
0.276095
0.558024
0.243233
0.559156
0.221633
0.519714
0.268191
0.503741
0.383065
0.419232
0.261727
0.375846
0.353686
0.268458
0.374294
0.239611
0.405023
0.217733
0.517138
0.286345
0.534323
0.342370
0.114638
0.532168
0.179947
0.538110
0.181823
0.490913
0.430655
0.452067
3.635650
2.210056
0.561080
0.311046
0.403003
0.220741
0.532103
0.224886
0.482277
0.247668
0.435742
0.286967
0.421890
0.250333
0.439436
0.217184
0.320356
0.261036
0.336306
0.398530
0.279945
0.452790
0.284657
0.308449
0.200763
0.364621
0.260743
0.501345
0.281123
0.574802
0.320046
0.572226
0.304487
0.555837
0.293892
0.571570
0.269320
0.569896
0.247971
0.532982
0.296170
0.519567
0.404667
0.434348
0.278111
0.365290
0.339239
0.273224
0.375846
0.294081
0.393313
0.134240
0.488838
0.204848
0.489725
0.347756
0.121207
0.535297
0.191116
0.541859
0.192584
0.494996
0.435265
0.456343
3.635886
2.210542
0.563403
0.324690
0.414101
0.241407
0.541370
0.246587
0.492920
0.267672
0.446930
0.301621
0.432069
0.263484
0.449771
0.221327
0.331435
0.245386
0.344137
0.377342
0.274823
0.439650
0.281576
0.305112
0.203104
0.375351
0.266630
0.520982
0.293174
0.575612
0.323285
0.575109
0.306703
0.559893
0.312450
0.583163
0.289423
0.578884
0.268851
0.544795
0.321069
0.536602
0.423600
0.449375
0.288678
0.360295
0.329318
0.277089
0.381644
0.291528
0.425999
0.149401
0.490996
0.130090
0.457181
0.357404
0.133403
0.541501
0.209337
0.548111
0.208873
0.501432
0.442466
0.462079
3.636514
2.211499
0.566969
0.326313
0.416640
0.248095
0.545753
0.259321
0.501216
0.286027
0.460408
0.323814
0.446349
0.273582
0.451505
0.229321
0.336281
0.243316
0.350436
0.364996
0.272238
0.426409
0.279816
0.303718
0.204238
0.379691
0.269060
0.524047
0.294805
0.577635
0.327990
0.578430
0.315766
0.565162
0.323675
0.584099
0.290971
0.580583
0.274148
0.548881
0.331756
0.546887
0.432558
0.460496
0.293588
0.363380
0.324920
0.276584
0.379893
0.272879
0.458403
0.211811
0.473724
0.070422
0.439578
0.369348
0.147822
0.549128
0.229986
0.555818
0.227539
0.509405
0.451527
0.467437
3.637949
2.213470
0.573279
0.323030
0.415326
0.248197
0.547229
0.266041
0.506989
0.300643
0.473237
0.346905
0.460655
0.280884
0.448837
0.241382
0.338254
0.252022
0.353869
0.363760
0.272319
0.416375
0.279338
0.303763
0.203763
0.379119
0.269416
0.516961
0.289965
0.580724
0.332943
0.581913
0.328038
0.570891
0.330624
0.580808
0.286123
0.579584
0.273221
0.549017
0.334206
0.552181
0.432898
0.467856
0.295972
0.370771
0.324796
0.273062
0.371818
0.246362
0.431376
0.241149
0.457180
0.061059
0.437416
0.382262
0.162781
0.557936
0.251221
0.564243
0.246415
0.518042
0.461426
0.473551
3.639853
2.216123
0.581713
0.324773
0.417357
0.252739
0.549861
0.272843
0.511684
0.311069
0.482306
0.362949
0.470076
0.287190
0.448472
0.255028
0.342741
0.264033
0.355294
0.373215
0.274986
0.413075
0.279632
0.304951
0.202838
0.378053
0.271080
0.511577
0.285351
0.584502
0.336826
0.585494
0.339122
0.576340
0.339693
0.583747
0.292475
0.582872
0.279688
0.551996
0.339476
0.557962
0.428641
0.472130
0.295226
0.377052
0.327374
0.269656
0.362691
0.223546
0.415870
0.213827
0.447805
0.101605
0.448633
0.393725
0.177400
0.568464
0.272828
0.573046
0.264566
0.526776
0.471433
0.480152
3.641002
2.217943
0.588248
0.333306
0.424240
0.264069
0.554799
0.281605
0.515871
0.317196
0.485974
0.367738
0.472021
0.292739
0.452417
0.265027
0.350307
0.273106
0.355726
0.391232
0.280604
0.418299
0.280576
0.307575
0.202567
0.378610
0.274758
0.513834
0.284012
0.588229
0.338983
0.588871
0.346130
0.580748
0.352441
0.595702
0.312566
0.591485
0.295291
0.559314
0.350736
0.566413
0.424271
0.473243
0.289893
0.378896
0.331877
0.270251
0.357349
0.214179
0.413861
0.215796
0.443611
0.143990
0.463014
0.401716
0.189432
0.579690
0.292799
0.581276
0.280249
0.534548
0.480241
0.486321
3.641432
2.218950
0.592983
0.347691
0.435440
0.281218
0.562454
0.294539
0.521824
0.324433
0.488728
0.368331
0.471817
0.300474
0.459311
0.273039
0.358743
0.280560
0.357595
0.410403
0.288520
0.428928
0.282622
0.311365
0.203627
0.378299
0.277540
0.517742
0.285908
0.591692
0.342867
0.592610
0.352038
0.585448
0.366775
0.609434
0.332656
0.600251
0.310879
0.566934
0.361767
0.574065
0.419071
0.474378
0.282283
0.379170
0.339582
0.276093
0.357555
0.221611
0.426171
0.247584
0.442206
0.171592
0.464481
0.404083
0.194835
0.589279
0.310360
0.589285
0.295155
0.542090
0.488414
0.492684
3.641679
2.219732
0.597175
0.366795
0.450032
0.302302
0.572607
0.311993
0.530728
0.336024
0.493923
0.370579
0.473752
0.311087
0.467111
0.281120
0.365454
0.287806
0.361521
0.421142
0.295246
0.440587
0.285646
0.313834
0.203523
0.374158
0.276282
0.515999
0.290334
0.594100
0.351080
0.596603
0.359032
0.591020
0.379584
0.616323
0.339176
0.603355
0.317474
0.570257
0.365590
0.576549
0.411964
0.479175
0.276744
0.380983
0.351579
0.285577
0.363957
0.246414
0.455101
0.288512
0.444417
0.178255
0.479785
0.400601
0.190017
0.594227
0.323615
0.596790
0.309466
0.549442
0.495794
0.499101
3.642195
2.220812
0.602002
0.388029
0.466114
0.324315
0.583932
0.331312
0.541423
0.350506
0.501472
0.376008
0.478937
0.323544
0.474275
0.290628
0.370121
0.295342
0.366951
0.419430
0.297318
0.448054
0.287017
0.313451
0.202235
0.366316
0.272827
0.508779
0.296703
0.595316
0.363128
0.600730
0.368601
0.597617
0.390319
0.615398
0.333744
0.601850
0.317213
0.570230
0.363725
0.574321
0.402826
0.488429
0.275361
0.386285
0.369637
0.299235
0.379074
0.289201
0.462400
0.227270
0.455764
0.162771
0.507863
0.392329
0.178643
0.595446
0.333115
0.603556
0.322718
0.556420
0.502442
0.505742
3.642967
2.222173
0.607352
0.406292
0.480097
0.342617
0.593649
0.347206
0.550590
0.363045
0.508836
0.383341
0.486473
0.336173
0.479480
0.301688
0.374150
0.302403
0.373544
0.405232
0.289770
0.446313
0.286574
0.311857
0.201426
0.362032
0.267439
0.501110
0.301862
0.596215
0.375843
0.605042
0.381904
0.605273
0.400578
0.613248
0.330449
0.602275
0.320393
0.572227
0.364873
0.572790
0.393126
0.499893
0.276951
0.396347
0.395888
0.320787
0.406433
0.347969
0.423345
0.159372
0.482020
0.136626
0.502069
0.381889
0.172044
0.597214
0.341399
0.609404
0.333996
0.562673
0.508642
0.512898
3.643687
2.223412
0.612116
0.416626
0.488362
0.353079
0.599063
0.355360
0.555307
0.369791
0.513735
0.390819
0.494971
0.347170
0.481448
0.313571
0.377845
0.307495
0.375261
0.382527
0.280183
0.433106
0.283778
0.309888
0.201179
0.367467
0.265680
0.501477
0.302487
0.595190
0.386161
0.609179
0.398637
0.613381
0.410416
0.613872
0.335922
0.607207
0.330901
0.578575
0.373598
0.575822
0.385291
0.511654
0.280576
0.412549
0.399202
0.353417
0.446028
0.301811
0.398951
0.120631
0.523599
0.124617
0.484041
0.373565
0.178157
0.601024
0.349127
0.613721
0.341863
0.567402
0.513916
0.519851
3.644452
2.224700
0.616938
0.420712
0.492260
0.358477
0.602064
0.360129
0.558443
0.375063
0.518480
0.399586
0.504397
0.357596
0.482927
0.326696
0.382352
0.304805
0.374992
0.360546
0.272094
0.413757
0.280406
0.307928
0.201158
0.380491
0.268219
0.508948
0.303025
0.592618
0.388333
0.613167
0.414987
0.620532
0.417837
0.617244
0.347699
0.615155
0.345953
0.587927
0.387883
0.583166
0.378929
0.521725
0.284984
0.436358
0.366514
0.396409
0.422111
0.256773
0.396296
0.147833
0.485878
0.148448
0.461571
0.368756
0.193504
0.606813
0.357499
0.617704
0.348683
0.571737
0.519122
0.526824
3.645443
2.226287
0.622518
0.421920
0.494270
0.362648
0.605395
0.367037
0.563781
0.384125
0.525898
0.410696
0.514469
0.368215
0.486849
0.339388
0.380194
0.298956
0.373868
0.346489
0.267593
0.397789
0.278335
0.306143
0.201332
0.393426
0.272579
0.515565
0.301039
0.590850
0.383167
0.611495
0.425054
0.624520
0.419401
0.621632
0.361296
0.623731
0.361189
0.597598
0.403121
0.592421
0.372657
0.527747
0.289023
0.458716
0.335989
0.350407
0.390550
0.236594
0.412734
0.207652
0.457204
0.196930
0.441931
0.365664
0.210050
0.613068
0.366783
0.622416
0.356575
0.576663
0.524775
0.533813
3.645818
2.226825
0.624138
0.414260
0.488839
0.357612
0.604137
0.367830
0.565834
0.388605
0.529513
0.414932
0.517318
0.369998
0.487118
0.340431
0.378499
0.303214
0.372196
0.348253
0.267545
0.393499
0.278254
0.305192
0.202158
0.398497
0.274641
0.514412
0.296366
0.592040
0.378592
0.611417
0.418358
0.620158
0.405849
0.620095
0.364557
0.625841
0.364440
0.599711
0.407367
0.596037
0.366885
0.523760
0.289450
0.429452
0.315363
0.315090
0.374676
0.242260
0.436085
0.260726
0.445444
0.242269
0.432681
0.361344
0.214773
0.614083
0.366670
0.622135
0.355705
0.575987
0.523869
0.534917
3.647595
2.229654
0.633806
0.414804
0.489551
0.359740
0.606455
0.373419
0.570303
0.395148
0.534013
0.419739
0.518887
0.372423
0.482144
0.334732
0.370696
0.313315
0.364896
0.366182
0.269090
0.404988
0.279771
0.306005
0.201930
0.387822
0.269797
0.497798
0.282178
0.594004
0.362683
0.608502
0.394690
0.617345
0.395806
0.620610
0.370957
0.629555
0.369665
0.601861
0.408341
0.593345
0.344849
0.511467
0.288242
0.389488
0.299721
0.281374
0.364738
0.255053
0.460208
0.278199
0.441944
0.294955
0.439546
0.345788
0.217214
0.616688
0.369553
0.624112
0.359122
0.577976
0.525740
0.541758
3.646825
2.228376
0.629198
0.387593
0.465960
0.325705
0.586214
0.338272
0.547121
0.360092
0.507679
0.384726
0.488527
0.347206
0.459544
0.335324
0.358161
0.339929
0.358465
0.406629
0.278720
0.438765
0.286743
0.311487
0.201531
0.355591
0.261924
0.460899
0.260494
0.600768
0.334523
0.606494
0.352820
0.602604
0.353846
0.596972
0.335681
0.609964
0.333973
0.578111
0.393284
0.576414
0.299935
0.486867
0.287665
0.341214
0.289927
0.247788
0.354813
0.257693
0.463767
0.229959
0.446624
0.296038
0.474567
0.319372
0.220244
0.602052
0.332730
0.604233
0.324614
0.557453
0.503008
0.519389
3.646100
2.227267
0.625609
0.359164
0.441616
0.287941
0.564983
0.297516
0.521369
0.317155
0.476714
0.342461
0.453439
0.327159
0.435346
0.352846
0.350384
0.385805
0.362445
0.466347
0.306180
0.493478
0.305448
0.326104
0.209135
0.309807
0.267204
0.409817
0.242644
0.566983
0.302610
0.593542
0.308671
0.582885
0.313202
0.571737
0.294714
0.589176
0.292704
0.551948
0.341848
0.550633
0.243555
0.456275
0.295872
0.298069
0.290896
0.221780
0.346653
0.250372
0.441140
0.212763
0.466127
0.327502
0.537543
0.299944
0.235273
0.576748
0.290070
0.583648
0.286532
0.536578
0.479727
0.496541
3.645388
2.226321
0.623236
0.338899
0.424697
0.259941
0.550482
0.267221
0.503730
0.285479
0.455062
0.311089
0.428520
0.318816
0.418644
0.376861
0.350605
0.428578
0.372511
0.518719
0.340687
0.545962
0.329805
0.346435
0.225165
0.273781
0.287031
0.366444
0.236256
0.530655
0.277232
0.557295
0.274942
0.554770
0.283266
0.553280
0.262964
0.574937
0.262198
0.533958
0.301185
0.536898
0.203970
0.441215
0.319506
0.276351
0.305737
0.217589
0.349965
0.256581
0.430316
0.222866
0.495925
0.371853
0.597759
0.304378
0.266869
0.559537
0.260202
0.571149
0.262160
0.524342
0.466023
0.483132
3.643063
2.222795
0.611841
0.310427
0.402160
0.220821
0.532905
0.228237
0.483883
0.248201
0.432329
0.276748
0.403668
0.296940
0.398088
0.383885
0.343181
0.444972
0.371229
0.540854
0.358483
0.575330
0.350794
0.367631
0.244776
0.261441
0.300752
0.340722
0.227064
0.503888
0.249207
0.526394
0.237515
0.529870
0.245442
0.533612
0.222225
0.558024
0.222514
0.514666
0.258302
0.517868
0.188788
0.401636
0.356766
0.269620
0.329243
0.232812
0.366946
0.289834
0.415298
0.216097
0.520315
0.379806
0.605359
0.322117
0.313711
0.540808
0.221579
0.555228
0.225930
0.507270
0.446678
0.464316
3.641959
2.221215
0.607186
0.298351
0.392910
0.203648
0.526066
0.211862
0.476434
0.233596
0.424404
0.264620
0.394918
0.285183
0.389524
0.392197
0.342614
0.452492
0.369401
0.547509
0.366120
0.588314
0.362498
0.382526
0.256443
0.256058
0.305995
0.330100
0.223033
0.490423
0.234315
0.509471
0.219145
0.518172
0.227507
0.525606
0.204040
0.551242
0.204967
0.507125
0.240112
0.503648
0.187736
0.380086
0.350804
0.270146
0.342843
0.246702
0.380617
0.300226
0.405727
0.205387
0.530730
0.372212
0.600672
0.332351
0.337103
0.533187
0.204544
0.548641
0.208860
0.499813
0.438120
0.455992
3.641523
2.220597
0.605428
0.291074
0.387519
0.193525
0.522410
0.203020
0.472735
0.226336
0.420702
0.259168
0.391272
0.275028
0.384407
0.394336
0.340722
0.453111
0.366970
0.547417
0.366926
0.591230
0.364977
0.384234
0.254845
0.254704
0.307523
0.324292
0.220036
0.484632
0.225595
0.501819
0.208041
0.511387
0.216047
0.521160
0.192982
0.547313
0.194373
0.503006
0.230274
0.496605
0.190554
0.370134
0.335280
0.272925
0.353307
0.259825
0.392728
0.281808
0.399007
0.194474
0.536498
0.359985
0.598087
0.337811
0.347084
0.528393
0.193652
0.544664
0.197826
0.495208
0.432822
0.450963
3.640907
2.219563
0.601501
0.276667
0.376997
0.172028
0.514983
0.183200
0.464493
0.208105
0.410815
0.243110
0.382218
0.257843
0.374987
0.385306
0.331121
0.446841
0.362032
0.544981
0.363300
0.588478
0.359049
0.373005
0.241704
0.254655
0.307267
0.316401
0.213505
0.481481
0.215219
0.498035
0.190761
0.502502
0.195755
0.513354
0.170921
0.539900
0.172479
0.494983
0.210803
0.485996
0.198842
0.361028
0.315026
0.281030
0.372618
0.281623
0.411767
0.257648
0.392971
0.187141
0.547991
0.349913
0.595175
0.347824
0.320886
0.519909
0.170877
0.537048
0.175654
0.486732
0.423109
0.441769
3.640510
2.218818
0.598266
0.263250
0.367435
0.150407
0.508299
0.163540
0.456936
0.189727
0.401097
0.225978
0.373251
0.244302
0.366858
0.375779
0.321189
0.438991
0.357312
0.542211
0.358964
0.583649
0.349646
0.357436
0.226480
0.256687
0.305096
0.310303
0.207037
0.481805
0.208482
0.497387
0.175588
0.494924
0.176407
0.506413
0.149476
0.533439
0.150817
0.487799
0.192108
0.477026
0.208365
0.356572
0.299952
0.292505
0.379391
0.307948
0.417406
0.234486
0.388976
0.182374
0.550597
0.343509
0.593419
0.358499
0.295259
0.512874
0.147646
0.530096
0.153126
0.479092
0.414372
0.433533
3.640070
2.217982
0.594604
0.251056
0.358858
0.128251
0.502269
0.143853
0.450224
0.172416
0.392676
0.209876
0.364066
0.236114
0.359470
0.371260
0.312801
0.431508
0.352449
0.539173
0.355677
0.579334
0.340773
0.344835
0.215888
0.260451
0.299405
0.309046
0.200627
0.483871
0.202722
0.494559
0.160157
0.487568
0.156953
0.499723
0.127774
0.527832
0.129297
0.481509
0.173939
0.467901
0.216702
0.351604
0.288139
0.302438
0.358139
0.336745
0.397281
0.213755
0.386500
0.176806
0.536802
0.338685
0.592635
0.370198
0.271433
0.507117
0.124169
0.523914
0.130250
0.472353
0.406675
0.426295
3.639482
2.216986
0.590706
0.240667
0.351643
0.106142
0.497039
0.124289
0.444370
0.156468
0.385795
0.195987
0.355168
0.232566
0.352971
0.371883
0.306412
0.425768
0.347818
0.536593
0.354108
0.576798
0.334536
0.337721
0.210729
0.265164
0.291031
0.312958
0.194880
0.485700
0.195813
0.487955
0.143527
0.480659
0.137245
0.493373
0.105160
0.523023
0.107928
0.476186
0.156251
0.458000
0.224838
0.343548
0.276513
0.308623
0.338516
0.321289
0.379844
0.197873
0.385811
0.171743
0.522647
0.333574
0.592759
0.383198
0.248806
0.502290
0.101815
0.518888
0.108200
0.466785
0.400254
0.420227
3.638809
2.216050
0.587907
0.232459
0.346111
0.085524
0.492912
0.106075
0.439565
0.142268
0.380318
0.184591
0.347816
0.229618
0.347543
0.372879
0.301709
0.422669
0.344305
0.535818
0.354016
0.576149
0.331718
0.335918
0.209564
0.269443
0.282620
0.319115
0.190243
0.484882
0.187224
0.480155
0.128223
0.475974
0.119054
0.488193
0.082114
0.519100
0.087023
0.471853
0.139469
0.448544
0.235506
0.334725
0.264700
0.313439
0.321809
0.296928
0.366567
0.187806
0.386714
0.170007
0.510563
0.326385
0.593792
0.397180
0.226536
0.498352
0.081821
0.515162
0.088124
0.462496
0.395213
0.415410
3.638102
2.215314
0.587084
0.226562
0.342342
0.067899
0.489960
0.090382
0.435908
0.130473
0.376282
0.176412
0.343194
0.221799
0.342547
0.369723
0.298387
0.422520
0.342426
0.537659
0.355014
0.577301
0.332885
0.339550
0.212001
0.271681
0.275943
0.324489
0.186472
0.479481
0.177066
0.474153
0.118764
0.475424
0.105621
0.484961
0.059614
0.516160
0.067370
0.468560
0.124791
0.441290
0.249025
0.328597
0.253705
0.318730
0.309353
0.278553
0.357911
0.182581
0.388066
0.171676
0.502305
0.315426
0.575996
0.411094
0.204880
0.495428
0.064030
0.512489
0.070159
0.459348
0.391473
0.411817
3.637357
2.214550
0.586485
0.222494
0.339767
0.051586
0.487725
0.076261
0.433143
0.121487
0.373878
0.172599
0.341820
0.209806
0.338678
0.363061
0.295761
0.422579
0.340979
0.539700
0.356070
0.579360
0.336901
0.347100
0.217074
0.272054
0.270780
0.328623
0.183204
0.471392
0.167187
0.471555
0.116457
0.477618
0.098298
0.483811
0.038317
0.514024