# vtk DataFile Version 2.0
Comment goes here
ASCII
DATASET UNSTRUCTURED_GRID
POINTS 6500 float
47.627109 1.078138 9.999341 
46.206253 1.081408 10.001928 
44.552387 1.085168 10.004489 
42.951385 1.088485 10.004999 
41.502917 1.090248 10.001312 
39.966244 1.091969 9.994658 
38.427880 1.094747 9.986473 
36.895990 1.097809 9.976876 
35.364308 1.098946 9.966137 
33.832356 1.095563 9.953821 
32.306307 1.085327 9.938617 
30.769742 1.069201 9.913858 
29.235604 1.064419 9.849387 
27.723181 1.059109 9.676212 
26.237952 1.010108 9.312080 
24.828924 0.954816 8.744834 
23.489284 0.891824 8.001724 
22.221457 0.813923 7.130552 
21.021792 0.727320 6.199889 
19.826426 0.643066 5.219459 
18.643338 0.556444 4.254549 
17.401173 0.448665 3.326084 
16.081438 0.348239 2.549184 
14.664446 0.281401 2.036528 
13.150439 0.268453 1.933974 
11.700079 0.326429 2.308024 
10.360389 0.405006 3.034008 
9.097391 0.482929 3.946130 
7.907117 0.563880 4.902113 
6.706793 0.663228 5.868286 
5.497084 0.766538 6.798442 
4.242294 0.853190 7.690689 
2.940855 0.925570 8.487544 
1.564391 0.981022 9.140161 
0.112231 1.014376 9.594892 
-1.400603 1.036792 9.818429 
-2.929723 1.057487 9.901026 
-4.460531 1.071479 9.931824 
-5.990202 1.077786 9.938533 
-7.524784 1.085690 9.923593 
-9.055240 1.094779 9.872785 
-10.574373 1.086271 9.758883 
-12.091062 1.056271 9.529934 
-13.587975 1.025457 9.188927 
-15.073380 1.003314 8.816503 
-16.578854 0.980867 8.535014 
-18.107038 0.969000 8.412260 
-19.628289 0.978765 8.402181 
-21.164951 0.990959 8.426189 
-22.695100 0.999170 8.448014 
-24.206874 0.954260 8.255299 
-25.640091 0.801855 7.701710 
-27.109919 0.745476 7.594719 
-28.493169 0.850918 8.252717 
-29.787233 0.986416 9.099828 
-31.238299 1.035188 9.593872 
-32.735739 1.030891 9.794123 
-34.268439 1.037710 9.868562 
-35.809299 1.055425 9.887980 
-37.332830 1.064443 9.900138 
-38.863146 1.070417 9.907949 
-40.396832 1.074689 9.911514 
-41.882289 1.077380 9.912110 
-43.557067 1.079577 9.911623 
47.627109 1.676237 9.891771 
46.206253 1.679387 9.894381 
44.552387 1.682993 9.896969 
42.951385 1.686103 9.897516 
41.502917 1.687580 9.893881 
39.966244 1.688924 9.887294 
38.427880 1.691274 9.879186 
36.895990 1.693846 9.869678 
35.364308 1.694389 9.859045 
33.832356 1.690245 9.846866 
32.306307 1.678987 9.831846 
30.769742 1.661253 9.807376 
29.235604 1.652834 9.743559 
27.723181 1.636981 9.572281 
26.237952 1.564345 9.212400 
24.828924 1.473972 8.651463 
23.489284 1.366853 7.916290 
22.221457 1.238057 7.054271 
21.021792 1.096989 6.133403 
19.826426 0.955288 5.163305 
18.643338 0.811518 4.208673 
17.401173 0.647261 3.290366 
16.081438 0.498785 2.522108 
14.664446 0.400387 2.015128 
13.150439 0.381985 1.913555 
11.700079 0.463729 2.283330 
10.360389 0.585492 3.001547 
9.097391 0.716949 3.904041 
7.907117 0.854831 4.849785 
6.706793 1.012400 5.805486 
5.497084 1.172146 6.725492 
4.242294 1.312917 7.608006 
2.940855 1.432887 8.396303 
1.564391 1.526802 9.042001 
0.112231 1.587421 9.491829 
-1.400603 1.624361 9.712754 
-2.929723 1.650771 9.794323 
-4.460531 1.666721 9.824768 
-5.990202 1.673372 9.831416 
-7.524784 1.680525 9.816611 
-9.055240 1.686630 9.766339 
-10.574373 1.668782 9.654117 
-12.091062 1.617974 9.428911 
-13.587975 1.557706 9.093201 
-15.073380 1.506060 8.726084 
-16.578854 1.461707 8.448534 
-18.107038 1.436307 8.328214 
-19.628289 1.438599 8.319479 
-21.164951 1.446026 8.344344 
-22.695100 1.450666 8.366812 
-24.206874 1.403620 8.174481 
-25.640091 1.252214 7.620712 
-27.109919 1.204997 7.512073 
-28.493169 1.332380 8.166126 
-29.787233 1.499344 9.007577 
-31.238299 1.587279 9.494577 
-32.735739 1.610700 9.689844 
-34.268439 1.628954 9.762225 
-35.809299 1.649437 9.781146 
-37.332830 1.659532 9.793110 
-38.863146 1.666051 9.800824 
-40.396832 1.670535 9.804350 
-41.882289 1.673238 9.804944 
-43.557067 1.675376 9.804468 
47.627109 2.214073 9.762266 
46.206253 2.217115 9.764901 
44.552387 2.220582 9.767523 
42.951385 2.223506 9.768114 
41.502917 2.224725 9.764541 
39.966244 2.225731 9.758036 
38.427880 2.227696 9.750021 
36.895990 2.229828 9.740618 
35.364308 2.229836 9.730115 
33.832356 2.225008 9.718100 
32.306307 2.212831 9.703301 
30.769742 2.193650 9.679180 
29.235604 2.181961 9.616151 
27.723181 2.156627 9.447155 
26.237952 2.062739 9.092391 
24.828924 1.940818 8.539051 
23.489284 1.794019 7.813432 
22.221457 1.619456 6.962434 
21.021792 1.429410 6.053359 
19.826426 1.236051 5.095700 
18.643338 1.040891 4.153442 
17.401173 0.825848 3.247364 
16.081438 0.634163 2.489510 
14.664446 0.507384 1.989364 
13.150439 0.484076 1.888972 
11.700079 0.587195 2.253601 
10.360389 0.747793 2.962467 
9.097391 0.927389 3.853369 
7.907117 1.116466 4.786786 
6.706793 1.326389 5.729881 
5.497084 1.536885 6.637667 
4.242294 1.726324 7.508461 
2.940855 1.889087 8.286454 
1.564391 2.017591 8.923824 
0.112231 2.102728 9.367748 
-1.400603 2.152727 9.585528 
-2.929723 2.184277 9.665860 
-4.460531 2.201986 9.695881 
-5.990202 2.208949 9.702454 
-7.524784 2.215425 9.687812 
-9.055240 2.218847 9.638186 
-10.574373 2.192601 9.527987 
-12.091062 2.123080 9.307286 
-13.587975 2.036325 8.977954 
-15.073380 1.958149 8.617225 
-16.578854 1.894098 8.344418 
-18.107038 1.856530 8.227029 
-19.628289 1.852100 8.219912 
-21.164951 1.855241 8.245809 
-22.695100 1.856670 8.269050 
-24.206874 1.807703 8.077181 
-25.640091 1.657196 7.523196 
-27.109919 1.618218 7.412573 
-28.493169 1.765330 8.061875 
-29.787233 1.960590 8.896514 
-31.238299 2.083741 9.375034 
-32.735739 2.132088 9.564298 
-34.268439 2.160625 9.634204 
-35.809299 2.183598 9.652525 
-37.332830 2.194660 9.664256 
-38.863146 2.201669 9.671852 
-40.396832 2.206345 9.675332 
-41.882289 2.209058 9.675923 
-43.557067 2.211144 9.675460 
47.627109 2.868905 9.594625 
46.206253 2.871815 9.597294 
44.552387 2.875113 9.599959 
42.951385 2.877810 9.600608 
41.502917 2.878717 9.597115 
39.966244 2.879311 9.590716 
38.427880 2.880806 9.582821 
36.895990 2.882403 9.573555 
35.364308 2.881760 9.563218 
33.832356 2.876099 9.551417 
32.306307 2.862803 9.536905 
30.769742 2.841861 9.513234 
29.235604 2.826189 9.451224 
27.723181 2.789313 9.285184 
26.237952 2.669548 8.937044 
24.828924 2.509219 8.393537 
23.489284 2.314108 7.680286 
22.221457 2.083821 6.843553 
21.021792 1.834144 5.949745 
19.826426 1.577888 5.008188 
18.643338 1.320159 4.081948 
17.401173 1.043282 3.191699 
16.081438 0.798989 2.447314 
14.664446 0.637657 1.956014 
13.150439 0.608377 1.857151 
11.700079 0.737518 2.215117 
10.360389 0.945399 2.911879 
9.097391 1.183607 3.787776 
7.907117 1.435014 4.705236 
6.706793 1.708681 5.632012 
5.497084 1.980966 6.523979 
4.242294 2.229659 7.379605 
2.940855 2.444525 8.144258 
1.564391 2.615141 8.770848 
0.112231 2.730130 9.207129 
-1.400603 2.796030 9.420839 
-2.929723 2.833837 9.499569 
-4.460531 2.853689 9.529041 
-5.990202 2.861029 9.535517 
-7.524784 2.866683 9.521086 
-9.055240 2.866838 9.472297 
-10.574373 2.830366 9.364715 
-12.091062 2.738063 9.149847 
-13.587975 2.619060 8.828770 
-15.073380 2.508582 8.476311 
-16.578854 2.420548 8.209644 
-18.107038 2.368163 8.096047 
-19.628289 2.355552 8.091025 
-21.164951 2.353472 8.118259 
-22.695100 2.350992 8.142500 
-24.206874 2.299687 7.951230 
-25.640091 2.150274 7.396965 
-27.109919 2.121327 7.283774 
-28.493169 2.292460 7.926927 
-29.787233 2.522171 8.752745 
-31.238299 2.688199 9.220289 
-32.735739 2.766895 9.401784 
-34.268439 2.807951 9.468485 
-35.809299 2.833955 9.486029 
-37.332830 2.846196 9.497459 
-38.863146 2.853801 9.504902 
-40.396832 2.858710 9.508322 
-41.882289 2.861436 9.508910 
-43.557067 2.863457 9.508464 
47.627109 3.529875 9.401515 
46.206253 3.532652 9.404223 
44.552387 3.535779 9.406939 
42.951385 3.538249 9.407654 
41.502917 3.538839 9.404254 
39.966244 3.539017 9.397976 
38.427880 3.540039 9.390219 
36.895990 3.541094 9.381112 
35.364308 3.539794 9.370967 
33.832356 3.533292 9.359411 
32.306307 3.518867 9.345229 
30.769742 3.496147 9.322077 
29.235604 3.476456 9.261242 
27.723181 3.427929 9.098605 
26.237952 3.282045 8.758097 
24.828924 3.082947 8.225916 
23.489284 2.839071 7.526913 
22.221457 2.552539 6.706613 
21.021792 2.242672 5.830389 
19.826426 1.922930 4.907380 
18.643338 1.602045 3.999592 
17.401173 1.262755 3.127578 
16.081438 0.965361 2.398706 
14.664446 0.769151 1.917597 
13.150439 0.733842 1.820495 
11.700079 0.889251 2.170787 
10.360389 1.144857 2.853605 
9.097391 1.442227 3.712217 
7.907117 1.756549 4.611296 
6.706793 2.094557 5.519274 
5.497084 2.429210 6.393020 
4.242294 2.737712 7.231172 
2.940855 3.005170 7.980460 
1.564391 3.218292 8.594631 
0.112231 3.363413 9.022109 
-1.400603 3.445362 9.231130 
-2.929723 3.489485 9.308014 
-4.460531 3.511501 9.336855 
-5.990202 3.519223 9.343220 
-7.524784 3.524045 9.329031 
-9.055240 3.520903 9.281205 
-10.574373 3.474110 9.176639 
-12.091062 3.358810 8.968489 
-13.587975 3.207257 8.656922 
-15.073380 3.064174 8.313989 
-16.578854 2.951933 8.054394 
-18.107038 2.884593 7.945167 
-19.628289 2.863722 7.942558 
-21.164951 2.856374 7.971331 
-22.695100 2.849948 7.996725 
-24.206874 2.796282 7.806145 
-25.640091 2.647974 7.251557 
-27.109919 2.629152 7.135408 
-28.493169 2.824532 7.771476 
-29.787233 3.089017 8.587135 
-31.238299 3.298324 9.042035 
-32.735739 3.407652 9.214580 
-34.268439 3.461345 9.277589 
-35.809299 3.490408 9.294240 
-37.332830 3.503839 9.305322 
-38.863146 3.512046 9.312589 
-40.396832 3.517190 9.315941 
-41.882289 3.519929 9.316525 
-43.557067 3.521885 9.316097 
47.627109 4.127925 9.179295 
46.206253 4.130581 9.182048 
44.552387 4.133555 9.184821 
42.951385 4.135818 9.185613 
41.502917 4.136121 9.182319 
39.966244 4.135923 9.176181 
38.427880 4.136517 9.168583 
36.895990 4.137083 9.159658 
35.364308 4.135189 9.149733 
33.832356 4.127926 9.138461 
32.306307 4.112479 9.124658 
30.769742 4.088150 9.102104 
29.235604 4.064822 9.042620 
27.723181 4.005754 8.883901 
26.237952 3.836237 8.552174 
24.828924 3.602060 8.033027 
23.489284 3.314061 7.350419 
22.221457 2.976638 6.549028 
[...]
POINT_DATA 6500
SCALARS sample_scalars float 1
LOOKUP_TABLE my_table
3.653614
2.246090
0.681190
0.278758
0.406269
0.186629
0.481477
0.193360
0.412480
0.220999
0.337392
0.262402
0.286688
0.363280
0.330023
0.547570
0.351491
0.631399
0.368619
0.542495
0.429457
0.440565
0.334510
0.479898
0.112315
0.414184
0.078046
0.470701
0.203756
0.290665
0.291468
0.262471
0.337834
0.164652
0.364708
0.167820
0.442227
0.141347
0.511797
0.114021
0.494053
0.079524
0.453615
0.331814
0.630664
0.571468
0.713052
0.530885
0.660310
0.479630
0.570690
0.373041
0.618645
0.391151
0.364486
0.496677
0.208350
0.464532
0.114527
0.514413
0.107841
0.485768
0.390082
0.427578
3.653147
2.245435
0.679434
0.274274
0.403546
0.181443
0.479955
0.190825
0.411590
0.218580
0.334081
0.254812
0.280239
0.361644
0.326293
0.546873
0.353297
0.632256
0.375061
0.545875
0.439080
0.445174
0.340409
0.481848
0.118612
0.417858
0.087261
0.474211
0.202564
0.292519
0.289057
0.262403
0.333012
0.152299
0.355928
0.146619
0.436143
0.126696
0.508674
0.104744
0.493617
0.117013
0.471537
0.312531
0.631281
0.536184
0.710791
0.514314
0.652808
0.480306
0.577001
0.380169
0.637047
0.412279
0.340539
0.496594
0.242005
0.457880
0.087242
0.510002
0.088278
0.482337
0.386245
0.424420
3.652952
2.245067
0.678025
0.276687
0.405000
0.184226
0.480726
0.191934
0.411978
0.220221
0.336935
0.261822
0.286334
0.360922
0.328880
0.543480
0.350276
0.631495
0.369948
0.542394
0.435955
0.442211
0.338920
0.480762
0.113917
0.416370
0.069460
0.471964
0.202301
0.290775
0.291183
0.262318
0.340066
0.164326
0.366352
0.166129
0.441492
0.138028
0.510933
0.111494
0.494017
0.075157
0.448163
0.273929
0.663318
0.539422
0.624364
0.494618
0.678259
0.523969
0.617541
0.426203
0.680914
0.465487
0.324743
0.530134
0.200579
0.463888
0.110522
0.513405
0.102850
0.484728
0.388858
0.426532
3.653352
2.245788
0.680669
0.277638
0.405769
0.186097
0.481582
0.194408
0.413101
0.221480
0.336488
0.259196
0.283930
0.363964
0.329384
0.548055
0.355279
0.631266
0.377931
0.543852
0.446868
0.445645
0.345469
0.482383
0.118248
0.419620
0.069140
0.475657
0.197356
0.293017
0.284796
0.263299
0.333878
0.159280
0.361049
0.156589
0.438774
0.133562
0.510234
0.110161
0.493780
0.090570
0.452051
0.259234
0.640091
0.506224
0.576559
0.426261
0.663501
0.517943
0.628855
0.431690
0.679064
0.473224
0.328097
0.532398
0.217792
0.460474
0.097969
0.511556
0.095793
0.483629
0.387741
0.425689
3.656136
2.250404
0.696071
0.295062
0.417846
0.210760
0.491504
0.217422
0.423919
0.239146
0.345994
0.268084
0.291345
0.382741
0.342151
0.568815
0.374478
0.631745
0.397529
0.546654
0.466536
0.451521
0.356954
0.485301
0.125580
0.424999
0.067586
0.483738
0.185178
0.301339
0.269307
0.272212
0.321590
0.168224
0.357599
0.162274
0.441972
0.152521
0.516360
0.135706
0.498377
0.120111
0.456068
0.256233
0.620915
0.443532
0.546303
0.378502
0.641191
0.498096
0.615173
0.414392
0.653930
0.466341
0.345117
0.539653
0.249157
0.461468
0.108947
0.515151
0.117420
0.488938
0.394676
0.432205
3.658950
2.255014
0.710970
0.314473
0.431571
0.236115
0.502485
0.240192
0.435413
0.257856
0.358310
0.283157
0.304230
0.401080
0.357893
0.587790
0.391570
0.632301
0.411657
0.546881
0.479887
0.454302
0.364906
0.487057
0.128929
0.428167
0.053800
0.489385
0.174876
0.308585
0.256874
0.281265
0.315428
0.186778
0.363003
0.183196
0.449743
0.177302
0.524485
0.161444
0.503350
0.120313
0.444821
0.261245
0.586173
0.364280
0.528640
0.335655
0.617012
0.475514
0.598106
0.406436
0.633267
0.476248
0.370640
0.569308
0.247335
0.467485
0.133740
0.521383
0.143426
0.495974
0.403378
0.440126
3.662382
2.260561
0.728296
0.349319
0.457246
0.279411
0.523493
0.279920
0.457897
0.294563
0.387312
0.322481
0.339650
0.426929
0.388483
0.606434
0.411330
0.638279
0.419269
0.545673
0.482606
0.452822
0.366911
0.487196
0.127666
0.427859
0.018847
0.491687
0.182195
0.319180
0.266882
0.300041
0.336432
0.236344
0.396088
0.242670
0.474372
0.229497
0.543662
0.211243
0.518212
0.130147
0.429130
0.321241
0.554153
0.299746
0.547499
0.331797
0.604795
0.468041
0.588081
0.379190
0.625616
0.441671
0.426751
0.516817
0.217858
0.491248
0.196669
0.539552
0.197559
0.513685
0.424510
0.459206
3.664619
2.264208
0.739616
0.372060
0.474786
0.307036
0.538523
0.306642
0.474494
0.319804
0.407322
0.347191
0.362517
0.444508
0.408178
0.617947
0.425212
0.644148
0.426978
0.547463
0.488084
0.454142
0.370109
0.488065
0.129576
0.429210
0.007713
0.494624
0.190981
0.327869
0.277524
0.314433
0.352373
0.264933
0.416558
0.274265
0.490355
0.260103
0.557123
0.242542
0.530629
0.158183
0.432797
0.346419
0.550999
0.283149
0.541522
0.349681
0.610768
0.482329
0.595236
0.362477
0.596045
0.435772
0.395284
0.491298
0.217912
0.506442
0.230018
0.552103
0.229135
0.526501
0.439827
0.473318
3.667287
2.268555
0.752926
0.398192
0.495498
0.337996
0.556564
0.336932
0.494430
0.348757
0.430870
0.375325
0.388858
0.465059
0.430965
0.631221
0.441479
0.651889
0.436078
0.550451
0.493940
0.456029
0.373435
0.489152
0.132329
0.430803
0.019893
0.498128
0.203071
0.338486
0.291992
0.331716
0.371978
0.296212
0.440195
0.308236
0.509267
0.293497
0.573358
0.276799
0.546184
0.193498
0.443784
0.263897
0.520307
0.300472
0.497637
0.365939
0.629282
0.511735
0.611036
0.340985
0.550137
0.430308
0.360980
0.473691
0.227301
0.524421
0.265400
0.567282
0.263209
0.542086
0.458287
0.490454
3.670406
2.273635
0.768231
0.427196
0.519088
0.371575
0.577409
0.370033
0.517402
0.380681
0.457479
0.406231
0.418074
0.488325
0.456449
0.646271
0.459983
0.661447
0.446597
0.554656
0.500244
0.458516
0.376929
0.490471
0.135917
0.432662
0.037115
0.502236
0.217855
0.350912
0.309679
0.351532
0.394645
0.329465
0.466505
0.343923
0.530840
0.328935
0.592201
0.313169
0.564679
0.232737
0.460883
0.189625
0.485954
0.335766
0.469928
0.309284
0.636620
0.502659
0.635451
0.310070
0.500321
0.420442
0.342752
0.464182
0.244219
0.544890
0.302189
0.584942
0.299052
0.560278
0.479611
0.510393
3.673500
2.278553
0.782518
0.453783
0.542374
0.406630
0.600691
0.405152
0.542951
0.414799
0.486428
0.422060
0.438430
0.513822
0.452368
0.636508
0.463978
0.672736
0.458350
0.560055
0.506913
0.461583
0.380545
0.492007
0.140251
0.434769
0.054929
0.506893
0.234875
0.364908
0.330146
0.373427
0.419918
0.339019
0.460642
0.352617
0.554715
0.365741
0.613361
0.350921
0.585812
0.273942
0.482815
0.124306
0.467702
0.269239
0.455433
0.268196
0.613649
0.479167
0.650856
0.266734
0.456984
0.403790
0.337609
0.461379
0.266550
0.567279
0.339876
0.604835
0.336045
0.580802
0.503400
0.532785
3.669711
2.272394
0.764242
0.421415
0.515476
0.369800
0.579679
0.379649
0.526778
0.390745
0.456491
0.388777
0.406664
0.487634
0.424958
0.618386
0.442708
0.666792
0.470928
0.566607
0.513866
0.465199
0.384235
0.493744
0.145239
0.437102
0.072950
0.512042
0.222450
0.353716
0.326316
0.367398
0.397877
0.303954
0.434576
0.315215
0.530624
0.344124
0.604264
0.349890
0.597513
0.316055
0.508440
0.070502
0.461799
0.216092
0.451980
0.244669
0.600145
0.468819
0.638155
0.212582
0.431911
0.379685
0.343020
0.464273
0.293044
0.544059
0.328196
0.607548
0.348938
0.591296
0.517463
0.547598
3.666339
2.266907
0.747637
0.391101
0.490901
0.334507
0.557634
0.344692
0.502062
0.357059
0.428927
0.357717
0.377200
0.462769
0.400001
0.601763
0.423278
0.656305
0.458847
0.574270
0.521088
0.469355
0.387994
0.493112
0.148564
0.439659
0.091065
0.507458
0.207703
0.340351
0.306655
0.345698
0.375515
0.270363
0.411369
0.279075
0.508452
0.307176
0.583648
0.311893
0.575246
0.318847
0.533212
0.045567
0.464644
0.176334
0.457965
0.241366
0.596275
0.472226
0.631126
0.160319
0.429688
0.351434
0.357393
0.472685
0.323258
0.523102
0.290312
0.587337
0.311748
0.569886
0.492669
0.524084
3.663392
2.262107
0.732851
0.363406
0.469053
0.301355
0.538219
0.311943
0.480077
0.325813
0.404264
0.329545
0.350657
0.440321
0.378003
0.586793
0.405982
0.647600
0.447834
0.569653
0.528640
0.474064
0.386722
0.491632
0.143907
0.442455
0.096895
0.503101
0.195747
0.328648
0.289995
0.326113
0.356383
0.238900
0.391531
0.244787
0.488880
0.271666
0.565410
0.275146
0.555430
0.275241
0.507297
0.069263
0.473437
0.150156
0.472246
0.258287
0.602611
0.489693
0.631775
0.134403
0.376447
0.328151
0.380440
0.487195
0.357283
0.504666
0.253298
0.569292
0.275494
0.550637
0.470089
0.502780
3.660891
2.258033
0.720104
0.339088
0.450416
0.271273
0.521804
0.282311
0.461299
0.297891
0.383136
0.305120
0.327799
0.420803
0.359581
0.573741
0.391222
0.640755
0.438085
0.563174
0.529102
0.472654
0.384452
0.490367
0.139919
0.442765
0.078968
0.499297
0.187030
0.318847
0.276786
0.309117
0.340947
0.210571
0.375562
0.213287
0.472269
0.238362
0.549845
0.240370
0.538393
0.232832
0.485688
0.107879
0.487089
0.137532
0.494010
0.291564
0.618720
0.519487
0.641173
0.155312
0.334801
0.318689
0.411646
0.508495
0.358940
0.489030
0.217700
0.553680
0.240741
0.533854
0.450142
0.484055
3.658849
2.254710
0.709573
0.318958
0.435430
0.245442
0.508702
0.256929
0.446159
0.274345
0.366160
0.285387
0.309426
0.404702
0.345315
0.562824
0.379352
0.635819
0.429769
0.557834
0.526041
0.469614
0.382336
0.489331
0.136687
0.441266
0.061079
0.496093
0.181913
0.311150
0.267423
0.295181
0.329618
0.186759
0.363887
0.185937
0.458933
0.208353
0.537204
0.208605
0.524422
0.191958
0.468356
0.148808
0.505719
0.140208
0.522501
0.335758
0.642870
0.508443
0.658638
0.204852
0.310096
0.326862
0.449082
0.536130
0.322474
0.476451
0.184345
0.540726
0.208298
0.519800
0.433225
0.468253
3.657235
2.252087
0.701178
0.303586
0.424296
0.224984
0.499023
0.236856
0.434877
0.256121
0.353754
0.271143
0.296177
0.392207
0.335502
0.553937
0.370429
0.632806
0.422829
0.553651
0.523285
0.467101
0.380321
0.488507
0.134225
0.439982
0.043324
0.493444
0.180752
0.305614
0.262401
0.284625
0.322849
0.169082
0.356825
0.164491
0.449051
0.182957
0.527586
0.181145
0.513688
0.152998
0.455229
0.192012
0.519028
0.159794
0.494174
0.311935
0.606298
0.451649
0.679199
0.260549
0.301305
0.348966
0.489394
0.539073
0.286245
0.467115
0.154421
0.530542
0.179169
0.508611
0.419595
0.455576
3.656032
2.250137
0.694909
0.293564
0.417212
0.211252
0.492883
0.223345
0.427665
0.244253
0.346296
0.263124
0.288628
0.383542
0.330390
0.547054
0.364542
0.631717
0.417270
0.550650
0.520807
0.465116
0.378389
0.487888
0.132557
0.438907
0.026054
0.491335
0.183611
0.302298
0.261978
0.277759
0.320910
0.159377
0.354560
0.151244
0.442787
0.164134
0.521099
0.160042
0.506354
0.117311
0.446500
0.239024
0.493550
0.196163
0.464151
0.247881
0.566830
0.401177
0.634042
0.299973
0.304092
0.377905
0.528413
0.507232
0.251390
0.461187
0.130142
0.523250
0.155097
0.500440
0.409530
0.446245
3.655239
2.248860
0.690810
0.289368
0.414330
0.205489
0.490369
0.217522
0.424682
0.239595
0.344032
0.261787
0.287125
0.378930
0.330103
0.542233
0.361794
0.632530
0.413159
0.548853
0.518631
0.463675
0.376550
0.487474
0.131714
0.438051
0.011685
0.489775
0.190214
0.301247
0.266082
0.274819
0.323783
0.158928
0.357070
0.148209
0.440244
0.154196
0.517828
0.147946
0.502543
0.088769
0.442600
0.291354
0.466998
0.247082
0.439651
0.187170
0.535108
0.359545
0.595260
0.241077
0.315184
0.409127
0.488705
0.479446
0.219479
0.458760
0.115012
0.518954
0.138687
0.495421
0.403283
0.440462
3.654874
2.248287
0.689016
0.291278
0.415756
0.208389
0.491549
0.220028
0.426026
0.242560
0.347038
0.267160
0.291698
0.378596
0.334635
0.539657
0.362332
0.635195
0.410657
0.548288
0.516866
0.462821
0.374866
0.487281
0.131740
0.437443
0.015716
0.488815
0.199994
0.302499
0.274280
0.275933
0.331133
0.167681
0.364105
0.155833
0.441455
0.154865
0.517843
0.147133
0.502334
0.076252
0.444087
0.263104
0.442028
0.303287
0.423983
0.138228
0.512875
0.331174
0.564626
0.186862
0.333430
0.427091
0.447434
0.457287
0.192573
0.459841
0.112735
0.517736
0.132881
0.493676
0.401065
0.438397
3.654928
2.248402
0.689497
0.299027
0.421338
0.219403
0.496307
0.230400
0.431555
0.252705
0.355046
0.278675
0.301909
0.382454
0.343649
0.539299
0.366049
0.639637
0.409770
0.548945
0.515521
0.462555
0.373340
0.487303
0.132621
0.437086
0.031666
0.488451
0.212403
0.305966
0.286102
0.280964
0.342538
0.184085
0.375261
0.172439
0.446299
0.165786
0.521072
0.157552
0.505662
0.087361
0.451484
0.211876
0.423534
0.237597
0.420294
0.122503
0.502648
0.322518
0.545153
0.147208
0.359729
0.389741
0.404611
0.441488
0.172641
0.464306
0.123758
0.519562
0.138816
0.495185
0.402876
0.440043
3.655368
2.249150
0.692058
0.311874
0.430695
0.237009
0.504360
0.247285
0.440913
0.268899
0.367506
0.295349
0.316977
0.390113
0.356550
0.540921
0.372605
0.645763
0.410353
0.550783
0.514508
0.462841
0.371921
0.487520
0.134283
0.436952
0.048923
0.488620
0.226994
0.311450
0.301125
0.289536
0.357573
0.206010
0.390050
0.195419
0.454517
0.184769
0.527317
0.176833
0.512341
0.115494
0.464870
0.167383
0.415905
0.185133
0.430661
0.156049
0.507379
0.294975
0.540942
0.146400
0.394675
0.357029
0.359207
0.432220
0.161317
0.471928
0.144698
0.524293
0.154766
0.499797
0.408513
0.445220
3.656169
2.250492
0.696555
0.328992
0.443414
0.259578
0.515406
0.269187
0.453700
0.289881
0.383798
0.316139
0.336044
0.401168
0.372726
0.544351
0.381678
0.653460
0.412307
0.553759
0.513788
0.463657
0.370583
0.485201
0.135820
0.437026
0.066376
0.489286
0.243299
0.318749
0.318820
0.301211
0.375698
0.231635
0.407928
0.222532
0.465807
0.209349
0.536360
0.202169
0.522136
0.151162
0.483717
0.143749
0.421469
0.168851
0.455388
0.221310
0.526740
0.184544
0.556310
0.195089
0.395641
0.332776
0.311056
0.429615
0.159694
0.482437
0.171688
0.531759
0.177793
0.507334
0.417706
0.453701
3.657329
2.252420
0.702926
0.349612
0.459108
0.285759
0.529163
0.294818
0.469526
0.314524
0.403312
0.340107
0.358300
0.415263
0.391625
0.549533
0.393019
0.653184
0.415617
0.557832
0.513398
0.465002
0.368473
0.482505
0.127837
0.437316
0.083797
0.490447
0.260839
0.327679
0.338584
0.315545
0.396300
0.259649
0.428325
0.252219
0.479844
0.237611
0.547984
0.231397
0.534787
0.189677
0.506980
0.153977
0.439562
0.200999
0.493292
0.301028
0.496067
0.091918
0.558602
0.271141
0.397832
0.323660
0.261784
0.433726
0.167548
0.495531
0.202123
0.541786
0.205375
0.517606
0.430156
0.465240
3.658854
2.254946
0.711162
0.373069
0.477413
0.314545
0.545360
0.323182
0.488020
0.341915
0.425489
0.366473
0.383042
0.432081
0.412766
0.545652
0.393210
0.653596
0.420320
0.562962
0.513426
0.466890
0.361277
0.480053
0.120388
0.437839
0.101101
0.487252
0.269822
0.338070
0.359831
0.332120
0.418772
0.289170
0.450703
0.283478
0.496304
0.268266
0.561972
0.263105
0.550024
0.228990
0.533310
0.191677
0.467861
0.263686
0.513191
0.314089
0.492675
0.122569
0.552492
0.356106
0.421641
0.334884
0.217340
0.444454
0.183288
0.510898
0.234519
0.554187
0.235830
0.530420
0.445547
0.479577
3.660725
2.258032
0.721084
0.398669
0.497886
0.345059
0.563652
0.353405
0.508740
0.371243
0.449769
0.394572
0.409646
0.451151
0.400735
0.519184
0.365643
0.637382
0.417796
0.569081
0.513833
0.467135
0.354230
0.477859
0.113595
0.434327
0.087986
0.479788
0.263644
0.328465
0.378116
0.350493
0.442727
0.319588
0.474650
0.315645
0.514838
0.300379
0.578045
0.296287
0.567529
0.268242
0.558451
0.241911
0.504024
0.339037
0.528720
0.349312
0.519445
0.237243
0.578671
0.440206
0.461757
0.366085
0.188760
0.461348
0.204631
0.528219
0.267978
0.568720
0.267991
0.545501
0.463475
0.496364
3.660570
2.256417
0.711178
0.379728
0.481198
0.320849
0.549953
0.333083
0.495717
0.353372
0.434502
0.376851
0.398118
0.430051
0.373522
0.494107
0.339627
0.619080
0.399342
0.565236
0.509706
0.461605
0.347326
0.475916
0.107540
0.430757
0.072753
0.472922
0.259847
0.314038
0.368075
0.344263
0.444264
0.300439
0.467749
0.338530
0.535093
0.333282
0.595891
0.330245
0.586964
0.307084
0.568603
0.296301
0.545927
0.418887
0.563973
0.413314
0.571894
0.362108
0.628593
0.516403
0.509825
0.411878
0.188136
0.483480
0.229434
0.547175
0.301929
0.585108
0.301076
0.562538
0.483505
0.515218
3.656625
2.250024
0.690674
0.346831
0.455790
0.281364
0.527843
0.295029
0.471106
0.318690
0.408072
0.347853
0.370852
0.400891
0.348742
0.470391
0.315281
0.601474
0.381818
0.558315
0.499569
0.456628
0.340522
0.474207
0.102284
0.427431
0.059193
0.466620
0.258524
0.301231
0.360857
0.322874
0.430991
0.270213
0.449778
0.305839
0.520491
0.307786
0.579758
0.301836
0.571205
0.312447
0.581483
0.351266
0.571261
0.499667
0.614589
0.493763
0.641365
0.484544
0.689593
0.575583
0.557339
0.464972
0.216598
0.509586
0.256065
0.548665
0.326837
0.602423
0.333770
0.579829
0.502410
0.531946
3.653094
2.244301
0.671877
0.315957
0.432898
0.242641
0.508239
0.258252
0.449139
0.286055
0.384407
0.321545
0.346330
0.373708
0.326776
0.448152
0.292875
0.584597
0.365313
0.552534
0.489684
0.452214
0.333822
0.472725
0.097916
0.424351
0.048573
0.460887
0.259617
0.290180
0.356543
0.303575
0.420691
0.242160
0.434664
0.274907
0.500908
0.270895
0.560771
0.263035
0.552135
0.279930
0.580199
0.405177
0.601702
0.579316
0.675363
0.581212
0.718426
0.598325
0.761847
0.607892
0.593148
0.517602
0.262821
0.538208
0.283348
0.530687
0.291023
0.582815
0.296089
0.558777
0.477869
0.508793
3.649976
2.239250
0.654918
0.287585
0.412817
0.204858
0.491336
0.223151
0.430095
0.256030
0.363881
0.298417
0.324973
0.348867
0.308028
0.427602
0.272777
0.568568
0.349989
0.547904
0.480122
0.448383
0.327265
0.471471
0.094536
0.421533
0.042862
0.455750
0.262915
0.281015
0.355033
0.286673
0.413377
0.216845
0.422514
0.246150
0.483753
0.235011
0.544106
0.224934
0.535639
0.250830
0.582673
0.457314
0.640411
0.655054
0.739414
0.665802
0.790961
0.692875
0.833023
0.604672
0.538153
0.562461
0.314273
0.548007
0.310450
0.515018
0.256150
0.565271
0.258981
0.539843
0.455516
0.487840
3.647273
2.234875
0.639937
0.262275
0.395805
0.168241
0.477274
0.190284
0.414204
0.229308
0.346806
0.278931
0.307145
0.326783
0.292856
0.409013
0.255418
0.553571
0.336059
0.544416
0.470994
0.445160
0.320913
0.470448
0.092229
0.419001
0.043657
0.451246
0.268084
0.273830
0.356059
0.272448
0.408899
0.194907
0.413299
0.220028
0.469129
0.200351
0.529866
0.187628
0.521819
0.225721
0.588403
0.507539
0.684465
0.723481
0.797783
0.735997
0.844850
0.755099
0.890710
0.533056
0.450971
0.593012
0.361931
0.539148
0.315271
0.501679
0.222378
0.549889
0.222511
0.523167
0.435579
0.469281
3.644950
2.231123
0.626875
0.240568
0.382003
0.132984
0.466093
0.160398
0.401594
0.206700
0.333433
0.263555
0.293196
0.307701
0.281497
0.392361
0.241017
0.539511
0.323510
0.542039
0.462240
0.442516
0.314728
0.469637
0.090987
0.416730
0.050421
0.447328
0.274960
0.268626
0.359543
0.261120
0.407261
0.177190
0.407057
0.197205
0.457110
0.167180
0.518086
0.151142
0.510737
0.205533
0.596994
0.555818
0.731004
0.781015
0.841069
0.780448
0.861442
0.772549
0.847784
0.327272
0.360679
0.603502
0.399384
0.537329
0.298116
0.490691
0.189930
0.536722
0.186655
0.508821
0.418221
0.453241
3.642983
2.227952
0.615685
0.223140
0.371543
0.099696
0.457823
0.134870
0.392371
0.189262
0.323984
0.252756
0.283452
0.291911
0.274133
0.377637
0.229795
0.526314
0.312344
0.540736
0.453808
0.440423
0.308678
0.469018
0.090769
0.414701
0.061023
0.443958
0.283365
0.265384
0.365364
0.252892
0.408426
0.164698
0.403797
0.178622
0.447775
0.136111
0.508803
0.115674
0.502446
0.191402
0.608114
0.602000
0.777078
0.823868
0.814346
0.695895
0.737739
0.627393
0.698315
0.137567
0.342457
0.590593
0.421497
0.540060
0.284933
0.482078
0.159294
0.525835
0.151486
0.496894
0.403634
0.439865
3.641355
2.225338
0.606371
0.210706
0.364508
0.070129
0.452457
0.115946
0.386583
0.178088
0.318567
0.246824
0.278088
0.279733
0.270806
0.364915
0.221972
0.513995
0.302626
0.540469
0.445709
0.438864
0.302764
0.468579
0.091513
0.412908
0.073629
0.441117
0.293042
0.264054
0.373270
0.247890
0.412212
0.158256
0.403410
0.165322
0.441157
0.108400
0.502034
0.081793
0.496956
0.184232
0.621364
0.645862
0.819782
0.847443
0.730244
0.557199
0.563423
0.367160
0.535658
0.309471
0.467316
0.544479
0.424510
0.544274
0.274626
0.475815
0.131358
0.517279
0.117212
0.487465
0.392001
0.429285
3.640061
2.223275
0.598983
0.203791
0.360873
0.049570
0.449912
0.106394
0.384157
0.173867
0.317088
0.245705
0.277000
0.271449
0.271340
0.354375
0.217704
0.502693
0.294505
0.541183
0.438029
0.437840
0.297034
0.467180
0.093143
0.411361
0.087137
0.438815
0.303641
0.264535
0.382845
0.246091
0.418242
0.158040
0.405606
0.158075
0.437189
0.086463