# vtk DataFile Version 2.0
Comment goes here
ASCII
DATASET UNSTRUCTURED_GRID
POINTS 6500 float
47.627109 1.051819 10.057822 
46.215232 1.057131 10.062474 
44.570118 1.063309 10.068332 
42.974531 1.069046 10.075572 
41.538030 1.072599 10.083514 
40.009984 1.075514 10.091900 
38.480317 1.078875 10.098705 
36.957149 1.082107 10.102195 
35.434131 1.083317 10.101109 
33.910880 1.079962 10.091967 
32.393895 1.069321 10.066847 
30.866646 1.051677 10.019901 
29.340496 1.042002 9.963520 
27.829913 1.037336 9.839275 
26.359250 0.998440 9.483930 
24.959133 0.948483 8.908696 
23.621706 0.889396 8.168226 
22.351287 0.815560 7.313955 
21.144451 0.731397 6.409954 
19.930543 0.645750 5.476144 
18.722456 0.558468 4.551753 
17.497868 0.456356 3.628249 
16.218104 0.356845 2.787811 
14.858551 0.283822 2.172272 
13.354694 0.260594 1.994969 
11.933880 0.309423 2.398400 
10.583099 0.389740 3.131202 
9.302188 0.471034 3.984879 
8.088539 0.550960 4.886551 
6.879833 0.642127 5.821453 
5.675703 0.737273 6.750565 
4.439712 0.819801 7.669638 
3.166167 0.893409 8.490099 
1.811219 0.955907 9.145739 
0.356838 0.993764 9.604972 
-1.134366 1.023428 9.885444 
-2.649071 1.046504 10.002200 
-4.172803 1.058330 10.025549 
-5.693483 1.062546 10.029717 
-7.218443 1.069019 10.024457 
-8.743687 1.081125 10.001565 
-10.253736 1.090311 9.930201 
-11.767727 1.100371 9.750856 
-13.263710 1.116250 9.445389 
-14.737594 1.126136 9.070475 
-16.229867 1.111243 8.743944 
-17.742540 1.089899 8.558345 
-19.251763 1.083878 8.498109 
-20.777973 1.088193 8.473079 
-22.302271 1.091007 8.436946 
-23.823197 1.107218 8.407195 
-25.347275 1.141446 8.419054 
-26.858415 1.175367 8.563670 
-28.354860 1.171361 8.840712 
-29.842423 1.122466 9.174065 
-31.321444 1.067525 9.522787 
-32.812213 1.029572 9.794442 
-34.331171 1.027433 9.926118 
-35.862523 1.042822 9.966340 
-37.376792 1.051694 9.988004 
-38.898351 1.058353 10.004601 
-40.422991 1.063780 10.017115 
-41.900105 1.067749 10.025794 
-43.566564 1.071025 10.032331 
47.627109 1.645861 9.950982 
46.215232 1.651372 9.955599 
44.570118 1.657777 9.961416 
42.974531 1.663698 9.968623 
41.538030 1.667276 9.976560 
40.009984 1.670050 9.984972 
38.480317 1.673127 9.991828 
36.957149 1.675939 9.995393 
35.434131 1.676586 9.994409 
33.910880 1.672464 9.985404 
32.393895 1.660700 9.960486 
30.866646 1.641243 9.913867 
29.340496 1.627659 9.858188 
27.829913 1.613016 9.735738 
26.359250 1.552873 9.384214 
24.959133 1.469789 8.814938 
23.621706 1.367956 8.082156 
22.351287 1.244298 7.236846 
21.144451 1.106218 6.342542 
19.930543 0.962606 5.419157 
18.722456 0.817116 4.505235 
17.497868 0.659468 3.591719 
16.218104 0.512003 2.759906 
14.858551 0.405328 2.150419 
13.354694 0.372451 1.974851 
11.933880 0.440972 2.374741 
10.583099 0.562291 3.100168 
9.302188 0.696355 3.944354 
8.088539 0.833341 4.835765 
6.879833 0.982245 5.760282 
5.675703 1.132595 6.679466 
4.439712 1.268440 7.588949 
3.166167 1.390314 8.400730 
1.811219 1.493286 9.049090 
0.356838 1.560843 9.502982 
-1.134366 1.607940 9.780319 
-2.649071 1.638159 9.895789 
-4.172803 1.651764 9.918819 
-5.693483 1.656142 9.922957 
-7.218443 1.662003 9.917808 
-8.743687 1.672152 9.895268 
-10.253736 1.675801 9.824900 
-11.767727 1.673216 9.647829 
-13.263710 1.668454 9.346074 
-14.737594 1.653218 8.975679 
-16.229867 1.615832 8.653193 
-17.742540 1.578235 8.470517 
-19.251763 1.561924 8.412132 
-20.777973 1.559373 8.388336 
-22.302271 1.557316 8.353079 
-23.823197 1.570348 8.323900 
-25.347275 1.604593 8.335757 
-26.858415 1.648143 8.478640 
-28.354860 1.666928 8.751584 
-29.842423 1.649521 9.079274 
-31.321444 1.626273 9.422295 
-32.812213 1.610220 9.690011 
-34.331171 1.617354 9.820019 
-35.862523 1.635026 9.859831 
-37.376792 1.644931 9.881310 
-38.898351 1.652215 9.897794 
-40.422991 1.658019 9.910240 
-41.900105 1.662191 9.918883 
-43.566564 1.665574 9.925400 
47.627109 2.180048 9.822355 
46.215232 2.185739 9.826929 
44.570118 2.192347 9.832697 
42.974531 2.198433 9.839863 
41.538030 2.202033 9.847795 
40.009984 2.204682 9.856238 
38.480317 2.207504 9.863155 
36.957149 2.209938 9.866811 
35.434131 2.210078 9.865949 
33.910880 2.205266 9.857111 
32.393895 2.192493 9.832436 
30.866646 2.171404 9.786209 
29.340496 2.154306 9.731377 
27.829913 2.130691 9.611087 
26.359250 2.051443 9.264163 
24.959133 1.938569 8.702060 
23.621706 1.798298 7.978533 
22.351287 1.629837 7.144011 
21.144451 1.443273 6.261382 
19.930543 1.247535 5.350549 
18.722456 1.049702 4.449230 
17.497868 0.842115 3.547740 
16.218104 0.651527 2.726309 
14.858551 0.514592 2.124109 
13.354694 0.473037 1.950631 
11.933880 0.559267 2.346257 
10.583099 0.717457 3.062806 
9.302188 0.898973 3.895566 
8.088539 1.087269 4.774621 
6.879833 1.288093 5.686636 
5.675703 1.488086 6.593867 
4.439712 1.671875 7.491806 
3.166167 1.837152 8.293135 
1.811219 1.976520 8.932732 
0.356838 2.070784 9.380193 
-1.134366 2.133557 9.653755 
-2.649071 2.170200 9.767679 
-4.172803 2.185405 9.790323 
-5.693483 2.189929 9.794427 
-7.218443 2.195240 9.789409 
-8.743687 2.203628 9.767293 
-10.253736 2.202299 9.698124 
-11.767727 2.188342 9.523792 
-13.263710 2.165018 9.226506 
-14.737594 2.127192 8.861550 
-16.229867 2.069579 8.543935 
-17.742540 2.017367 8.364778 
-19.251763 1.991803 8.308621 
-20.777973 1.983077 8.286312 
-22.302271 1.976641 8.252110 
-23.823197 1.986813 8.223619 
-25.347275 2.021074 8.235472 
-26.858415 2.073282 8.376271 
-28.354860 2.112563 8.644279 
-29.842423 2.123470 8.965151 
-31.321444 2.128722 9.301310 
-32.812213 2.132362 9.564284 
-34.331171 2.147835 9.692284 
-35.862523 2.167561 9.731601 
-37.376792 2.178394 9.752857 
-38.898351 2.186241 9.769205 
-40.422991 2.192384 9.781570 
-41.900105 2.196739 9.790169 
-43.566564 2.200217 9.796663 
47.627109 2.830437 9.655851 
46.215232 2.836346 9.660369 
44.570118 2.843203 9.666074 
42.974531 2.849490 9.673189 
41.538030 2.853117 9.681114 
40.009984 2.855612 9.689596 
38.480317 2.858124 9.696592 
36.957149 2.860098 9.700366 
35.434131 2.859622 9.699662 
33.910880 2.853970 9.691038 
32.393895 2.839967 9.666678 
30.866646 2.816892 9.620960 
29.340496 2.795515 9.567223 
27.829913 2.760977 9.449730 
26.359250 2.658467 9.108761 
24.959133 2.509324 8.555944 
23.621706 2.322253 7.844398 
22.351287 2.099243 7.023841 
21.144451 1.853649 6.156324 
19.930543 1.594446 5.261738 
18.722456 1.332884 4.376734 
17.497868 1.064493 3.490809 
16.218104 0.821402 2.682820 
14.858551 0.647624 2.090052 
13.354694 0.595504 1.919279 
11.933880 0.703294 2.309385 
10.583099 0.906375 3.014442 
9.302188 1.145667 3.832411 
8.088539 1.396435 4.695473 
6.879833 1.660472 5.591305 
5.675703 1.920906 6.483062 
4.439712 2.163070 7.366057 
3.166167 2.381191 8.153858 
1.811219 2.564871 8.782111 
0.356838 2.691653 9.221247 
-1.134366 2.773512 9.489923 
-2.649071 2.817976 9.601844 
-4.172803 2.835129 9.623990 
-5.693483 2.839831 9.628048 
-7.218443 2.844471 9.623202 
-8.743687 2.850716 9.601635 
-10.253736 2.843325 9.534018 
-11.767727 2.815524 9.363229 
-13.263710 2.769601 9.071729 
-14.737594 2.704270 8.713815 
-16.229867 2.622030 8.402504 
-17.742540 2.552024 8.227903 
-19.251763 2.515195 8.174630 
-20.777973 2.498950 8.154246 
-22.302271 2.487181 8.121408 
-23.823197 2.493873 8.093809 
-25.347275 2.528152 8.105657 
-26.858415 2.590903 8.243757 
-28.354860 2.655136 8.505377 
-29.842423 2.700519 8.817423 
-31.321444 2.740470 9.144699 
-32.812213 2.768087 9.401535 
-34.331171 2.793713 9.526936 
-35.862523 2.815939 9.565613 
-37.376792 2.827903 9.586578 
-38.898351 2.836434 9.602752 
-40.422991 2.842989 9.615011 
-41.900105 2.847567 9.623553 
-43.566564 2.851162 9.630017 
47.627109 3.486923 9.464052 
46.215232 3.493053 9.468506 
44.570118 3.500160 9.474137 
42.974531 3.506650 9.481193 
41.538030 3.510305 9.489110 
40.009984 3.512645 9.497637 
38.480317 3.514843 9.504725 
36.957149 3.516352 9.508635 
35.434131 3.515254 9.508112 
33.910880 3.508754 9.499736 
32.393895 3.493510 9.475739 
30.866646 3.468431 9.430606 
29.340496 3.442735 9.378131 
27.829913 3.397171 9.263859 
26.359250 3.271181 8.929751 
24.959133 3.085429 8.387629 
23.621706 2.851118 7.689884 
22.351287 2.573050 6.885413 
21.144451 2.267871 6.035304 
19.930543 1.944608 5.159434 
18.722456 1.618720 4.293224 
17.497868 1.288956 3.425230 
16.218104 0.992869 2.632724 
14.858551 0.781903 2.050822 
13.354694 0.719119 1.883164 
11.933880 0.848671 2.266911 
10.583099 1.097064 2.958730 
9.302188 1.394674 3.759661 
8.088539 1.708500 4.604300 
6.879833 2.036342 5.481491 
5.675703 2.357784 6.355424 
4.439712 2.658869 7.221204 
3.166167 2.930330 7.993421 
1.811219 3.158738 8.608606 
0.356838 3.318341 9.038153 
-1.134366 3.419466 9.301201 
-2.649071 3.471825 9.410816 
-4.172803 3.490944 9.432387 
-5.693483 3.495825 9.436392 
-7.218443 3.499789 9.431744 
-8.743687 3.503870 9.410809 
-10.253736 3.490361 9.344980 
-11.767727 3.448585 9.178274 
-13.263710 3.379852 8.893438 
-14.737594 3.286758 8.543635 
-16.229867 3.179660 8.239586 
-17.742540 3.091694 8.070233 
-19.251763 3.043492 8.020282 
-20.777973 3.019658 8.002116 
-22.302271 3.002508 7.970850 
-23.823197 3.005686 7.944277 
-25.347275 3.039984 7.956120 
-26.858415 3.113375 8.091111 
-28.354860 3.202796 8.345373 
-29.842423 3.282976 8.647252 
-31.321444 3.357952 8.964295 
-32.812213 3.409771 9.214061 
-34.331171 3.445645 9.336467 
-35.862523 3.470395 9.374407 
-37.376792 3.483499 9.395039 
-38.898351 3.492722 9.411011 
-40.422991 3.499693 9.423148 
-41.900105 3.504496 9.431624 
-43.566564 3.508209 9.438054 
47.627109 4.080916 9.243340 
46.215232 4.087245 9.247719 
44.570118 4.094579 9.253266 
42.974531 4.101253 9.260254 
41.538030 4.104932 9.268162 
40.009984 4.107132 9.276741 
38.480317 4.109047 9.283934 
36.957149 4.110136 9.288000 
35.434131 4.108475 9.287687 
33.910880 4.101208 9.279596 
32.393895 4.084841 9.256016 
30.866646 4.057948 9.211557 
29.340496 4.028344 9.160534 
27.829913 3.972803 9.049969 
26.359250 3.825569 8.723754 
24.959133 3.606693 8.193941 
23.621706 3.329640 7.512078 
22.351287 3.001753 6.726118 
[...]
POINT_DATA 6500
SCALARS sample_scalars float 1
LOOKUP_TABLE my_table
3.660499
2.266466
0.734299
0.319742
0.479822
0.293514
0.489210
0.333007
0.425491
0.374086
0.340671
0.400022
0.276517
0.556461
0.391249
0.616747
0.464659
0.529700
0.536333
0.514250
0.721222
0.532567
0.577034
0.382831
0.302037
0.291383
0.234187
0.342098
0.346597
0.119092
0.456990
0.100359
0.548687
0.172914
0.453350
0.231994
0.395838
0.314795
0.335583
0.377160
0.261108
0.433785
0.294553
0.672315
0.614358
0.820183
0.769495
0.688873
0.605236
0.609789
0.477854
0.635929
0.524896
0.630769
0.497145
0.385396
0.245942
0.418119
0.202802
0.496312
0.200289
0.542046
0.417993
0.478637
3.659412
2.264865
0.729901
0.310878
0.474356
0.285019
0.484553
0.326744
0.420839
0.368401
0.332922
0.391463
0.263415
0.551182
0.384168
0.613680
0.463737
0.530229
0.539279
0.517314
0.724917
0.535805
0.579596
0.385034
0.303686
0.293961
0.235211
0.344733
0.344893
0.117717
0.453757
0.086000
0.544064
0.154616
0.444261
0.212845
0.386289
0.304499
0.326672
0.370464
0.254963
0.440146
0.326204
0.671500
0.594424
0.772351
0.733517
0.653669
0.570287
0.596463
0.463838
0.614431
0.505291
0.613409
0.475684
0.383400
0.275183
0.408642
0.182975
0.489365
0.184118
0.536785
0.411642
0.473468
3.659696
2.265214
0.730592
0.318646
0.479153
0.292608
0.488838
0.332774
0.425566
0.374476
0.341521
0.401063
0.278562
0.554152
0.389755
0.618389
0.461644
0.530312
0.535173
0.514808
0.721861
0.533524
0.577905
0.383721
0.302256
0.291987
0.232805
0.342647
0.347762
0.123044
0.460280
0.112272
0.555052
0.181834
0.452309
0.233888
0.395419
0.314083
0.334913
0.376958
0.262024
0.430496
0.279348
0.634342
0.588321
0.733166
0.647914
0.647278
0.562115
0.604050
0.473588
0.602384
0.499137
0.599835
0.434576
0.412692
0.239980
0.417963
0.202196
0.495787
0.198668
0.541410
0.417169
0.477942
3.659701
2.265331
0.731346
0.317809
0.478901
0.292636
0.489145
0.333614
0.426339
0.375031
0.340984
0.399161
0.275546
0.554886
0.390212
0.618049
0.465448
0.531620
0.540899
0.517954
0.727076
0.536960
0.581271
0.385948
0.303578
0.294421
0.233661
0.345688
0.345658
0.123716
0.456626
0.108776
0.552255
0.175777
0.449841
0.227101
0.392734
0.311667
0.333097
0.375901
0.261806
0.433850
0.289288
0.622961
0.576699
0.701508
0.596684
0.638842
0.561037
0.624569
0.506445
0.620245
0.521727
0.608133
0.439928
0.410975
0.255066
0.413921
0.195013
0.493569
0.194418
0.540266
0.416066
0.477255
3.662112
2.269388
0.744415
0.333242
0.489876
0.311113
0.500908
0.351127
0.440176
0.389815
0.354567
0.407684
0.286946
0.569316
0.406486
0.622421
0.484567
0.537842
0.558713
0.526608
0.740147
0.545224
0.589124
0.390837
0.306587
0.300208
0.235982
0.354239
0.339059
0.131654
0.445655
0.114911
0.544920
0.178736
0.457221
0.233524
0.400644
0.323092
0.344564
0.386458
0.276681
0.447192
0.310605
0.622337
0.574800
0.684102
0.563213
0.615223
0.573266
0.654397
0.549201
0.648523
0.555839
0.626084
0.461388
0.414949
0.283023
0.416299
0.204395
0.498958
0.210632
0.547178
0.425789
0.486294
3.665258
2.274521
0.760140
0.357090
0.506809
0.337872
0.518372
0.376000
0.460354
0.412146
0.377696
0.426292
0.312896
0.588996
0.430289
0.632298
0.503919
0.545540
0.573638
0.534254
0.750308
0.551886
0.595064
0.394567
0.308947
0.305117
0.240471
0.362447
0.337403
0.146788
0.441579
0.142584
0.547274
0.204962
0.473174
0.258506
0.417871
0.344131
0.364569
0.404131
0.299185
0.455696
0.300476
0.612729
0.590751
0.686383
0.541077
0.571217
0.545238
0.662870
0.585877
0.679765
0.592542
0.646498
0.472653
0.439754
0.281716
0.427476
0.230020
0.510837
0.238917
0.559184
0.441576
0.500491
3.670532
2.282887
0.784439
0.406004
0.542581
0.390236
0.554421
0.424803
0.501467
0.458331
0.428434
0.472381
0.374641
0.624221
0.475285
0.659000
0.528357
0.561549
0.585432
0.543516
0.755906
0.557159
0.597945
0.396951
0.311258
0.310097
0.253373
0.373113
0.352755
0.185502
0.460900
0.214144
0.577759
0.280321
0.511394
0.325039
0.460497
0.392346
0.409806
0.444470
0.348956
0.471014
0.266531
0.609901
0.506395
0.601997
0.555062
0.529889
0.496892
0.630501
0.549187
0.709066
0.620307
0.679128
0.484561
0.486552
0.255111
0.463770
0.293951
0.542108
0.299686
0.587650
0.477096
0.532096
3.673498
2.287637
0.798116
0.433791
0.563895
0.419903
0.576101
0.453206
0.526130
0.485574
0.457659
0.498874
0.408182
0.644039
0.500282
0.675866
0.542619
0.572904
0.592976
0.550685
0.759092
0.560839
0.599342
0.398773
0.313426
0.310057
0.250873
0.378291
0.365725
0.209139
0.476193
0.251461
0.598654
0.319493
0.532658
0.359509
0.484724
0.419656
0.435894
0.468573
0.378866
0.485107
0.261441
0.608718
0.450585
0.552233
0.538540
0.518069
0.483916
0.628138
0.548996
0.706616
0.622997
0.685614
0.496685
0.453677
0.254516
0.484921
0.327270
0.560766
0.332340
0.605048
0.498487
0.551463
3.676972
2.293200
0.813904
0.464707
0.588278
0.452715
0.600920
0.483749
0.549709
0.506582
0.474900
0.510740
0.411396
0.631912
0.480742
0.674778
0.557738
0.586510
0.601597
0.559360
0.758217
0.555556
0.595382
0.398636
0.314408
0.303794
0.241575
0.366689
0.366648
0.231963
0.493807
0.253489
0.593223
0.321156
0.545158
0.391447
0.511956
0.450040
0.465127
0.495924
0.412195
0.504011
0.269331
0.618517
0.414614
0.524170
0.488270
0.523224
0.489195
0.638975
0.563677
0.717472
0.642314
0.682685
0.514888
0.427235
0.261757
0.509000
0.362995
0.582271
0.367622
0.625257
0.522991
0.573849
3.672272
2.286518
0.797530
0.439976
0.567191
0.419445
0.572324
0.444900
0.515797
0.469964
0.436851
0.477293
0.370174
0.604149
0.447152
0.654835
0.533824
0.582110
0.600299
0.552343
0.749898
0.548528
0.590415
0.394945
0.310879
0.298310
0.235425
0.356475
0.356717
0.203656
0.479264
0.212348
0.576439
0.277796
0.517211
0.349973
0.489480
0.439667
0.458199
0.493412
0.420113
0.527281
0.289259
0.586414
0.397987
0.513965
0.456562
0.542108
0.509756
0.661341
0.591204
0.739577
0.675653
0.691512
0.541291
0.408552
0.275619
0.519370
0.370836
0.590294
0.381559
0.633710
0.532824
0.582488
3.668072
2.279687
0.777455
0.404382
0.539818
0.381411
0.544912
0.408868
0.485104
0.436546
0.401955
0.447219
0.331812
0.579433
0.416758
0.637987
0.511878
0.566786
0.586670
0.541727
0.741816
0.542189
0.585425
0.391564
0.307935
0.293695
0.232666
0.347837
0.350032
0.177063
0.468114
0.172211
0.563670
0.236526
0.492121
0.310494
0.459752
0.405054
0.424685
0.461973
0.381545
0.543803
0.317991
0.546408
0.397316
0.517672
0.440999
0.572190
0.543261
0.694577
0.630692
0.771604
0.720565
0.709995
0.578182
0.396500
0.294564
0.491918
0.330684
0.565265
0.340775
0.609676
0.503703
0.555755
3.664429
2.273743
0.759579
0.371780
0.515677
0.346321
0.520906
0.376253
0.458104
0.406923
0.370897
0.421069
0.297174
0.557981
0.390073
0.624394
0.491998
0.553784
0.574054
0.532673
0.733911
0.536512
0.580376
0.388477
0.305573
0.289950
0.233365
0.340823
0.346793
0.152962
0.460640
0.133744
0.555175
0.198418
0.470197
0.273667
0.433233
0.373288
0.394085
0.433593
0.345662
0.511564
0.352390
0.516428
0.408516
0.531666
0.439105
0.578116
0.572148
0.736691
0.681130
0.812543
0.774654
0.736496
0.609830
0.389882
0.317668
0.467344
0.292172
0.542972
0.301555
0.588341
0.477394
0.531840
3.661319
2.268653
0.743944
0.342851
0.495118
0.314959
0.500668
0.347823
0.435328
0.381802
0.344527
0.399466
0.267478
0.540013
0.367681
0.614189
0.474300
0.543219
0.562423
0.525207
0.726130
0.531473
0.575236
0.385668
0.303790
0.287067
0.237428
0.335464
0.347101
0.132596
0.457059
0.098616
0.550353
0.165423
0.451772
0.240520
0.410424
0.345020
0.366999
0.408796
0.313254
0.483053
0.372725
0.495770
0.427690
0.553256
0.448252
0.563944
0.553436
0.725842
0.694683
0.860352
0.834591
0.769968
0.625201
0.388238
0.344627
0.445987
0.255905
0.523691
0.264447
0.569937
0.454292
0.511053
3.658743
2.264422
0.730687
0.318548
0.478569
0.288484
0.484629
0.324619
0.417415
0.362052
0.323907
0.383101
0.244395
0.525834
0.350319
0.607492
0.459030
0.535221
0.551857
0.519394
0.718493
0.527091
0.570015
0.383145
0.302591
0.285063
0.244618
0.331816
0.350880
0.117821
0.457395
0.071522
0.540301
0.140922
0.437237
0.212662
0.391926
0.321134
0.344222
0.388241
0.285475
0.458738
0.325556
0.483704
0.452177
0.561239
0.465898
0.556523
0.541700
0.719540
0.689848
0.912028
0.896518
0.809185
0.643461
0.391893
0.375576
0.428255
0.222936
0.507752
0.230445
0.554743
0.434895
0.493778
3.656712
2.261073
0.720009
0.300021
0.466472
0.268370
0.473229
0.307837
0.405016
0.348582
0.310154
0.372615
0.229821
0.515789
0.338768
0.604373
0.446539
0.529909
0.542524
0.515320
0.711084
0.523421
0.564758
0.380939
0.301993
0.279559
0.246844
0.329953
0.357882
0.110776
0.461470
0.063149
0.533319
0.129473
0.426977
0.192285
0.378358
0.302674
0.326671
0.372643
0.263796
0.439135
0.281918
0.479143
0.433049
0.550523
0.489953
0.554784
0.536651
0.717739
0.688991
0.922384
0.931307
0.852063
0.663999
0.401673
0.391799
0.414567
0.194927
0.495482
0.201164
0.543047
0.419744
0.480421
3.655233
2.258619
0.712048
0.288304
0.459131
0.256027
0.466754
0.298475
0.398573
0.342037
0.304070
0.368387
0.225191
0.510089
0.333549
0.604804
0.437107
0.527338
0.534559
0.513031
0.703972
0.520498
0.558017
0.379070
0.301997
0.268357
0.237899
0.329894
0.367777
0.112716
0.469011
0.079010
0.529502
0.133978
0.421231
0.181670
0.370179
0.290591
0.315145
0.362579
0.249712
0.424626
0.242473
0.480567
0.410984
0.543333
0.518707
0.557414
0.537294
0.719565
0.691190
0.918333
0.934115
0.895490
0.686020
0.417873
0.358243
0.405264
0.174131
0.487115
0.178833
0.535048
0.409273
0.471282
3.654261
2.256991
0.706673
0.283818
0.456504
0.252092
0.465127
0.296779
0.398033
0.342418
0.305693
0.370311
0.230583
0.508560
0.334523
0.608613
0.430643
0.527418
0.527841
0.512436
0.697060
0.508533
0.546708
0.374073
0.300286
0.257988
0.232343
0.325108
0.380306
0.122899
0.479851
0.108406
0.528693
0.152485
0.419925
0.182013
0.367463
0.285332
0.309979
0.358225
0.244120
0.415278
0.207694
0.486814
0.392150
0.536829
0.541967
0.562790
0.541818
0.723214
0.694357
0.912202
0.932558
0.917737
0.707985
0.439926
0.325271
0.400500
0.162819
0.482669
0.165714
0.530728
0.403598
0.466390
3.653772
2.256148
0.703802
0.286587
0.458469
0.256577
0.468186
0.302540
0.403158
0.349400
0.314572
0.378034
0.244928
0.511008
0.341312
0.615591
0.427098
0.530047
0.522320
0.513458
0.685683
0.495422
0.535348
0.367040
0.295071
0.248505
0.230336
0.307689
0.395140
0.139265
0.493704
0.142782
0.530741
0.180290
0.422904
0.192845
0.370112
0.287000
0.311239
0.359570
0.247283
0.411159
0.179042
0.497175
0.374781
0.528836
0.511968
0.569758
0.548696
0.727246
0.696810
0.902169
0.924342
0.904356
0.727673
0.466506
0.293980
0.400314
0.162589
0.482119
0.163618
0.530048
0.402744
0.465721
3.653750
2.256069
0.703397
0.296175
0.464817
0.268786
0.475678
0.315094
0.413537
0.362361
0.329855
0.390988
0.266439
0.517220
0.353343
0.625494
0.426457
0.535102
0.518016
0.516035
0.667692
0.482992
0.523918
0.360331
0.290487
0.239969
0.231879
0.291668
0.411891
0.159684
0.510169
0.178893
0.535500
0.213372
0.429918
0.212210
0.377833
0.295261
0.318650
0.366377
0.258626
0.412291
0.159425
0.511334
0.358155
0.519178
0.479138
0.578031
0.557585
0.697054
0.667726
0.887508
0.908128
0.888220
0.742992
0.495753
0.265749
0.404586
0.173165
0.485365
0.172637
0.532918
0.406607
0.469176
3.654200
2.256760
0.705488
0.311815
0.475281
0.287579
0.487298
0.333520
0.428656
0.380529
0.350505
0.408486
0.293261
0.526999
0.369970
0.638051
0.428781
0.542452
0.515057
0.516565
0.649834
0.471312
0.512450
0.353977
0.286562
0.232476
0.236789
0.277266
0.415538
0.182574
0.528743
0.215480
0.542846
0.249226
0.440662
0.237727
0.390189
0.309445
0.331672
0.378236
0.276968
0.418638
0.152833
0.529194
0.343997
0.509470
0.445607
0.559756
0.498753
0.640592
0.600909
0.868451
0.883381
0.867758
0.752844
0.495339
0.242172
0.413042
0.192539
0.492254
0.191018
0.539220
0.414977
0.476599
3.655102
2.258189
0.709951
0.332382
0.489407
0.311459
0.502562
0.356618
0.447797
0.402929
0.375345
0.429725
0.323733
0.539959
0.390077
0.652951
0.433895
0.551899
0.513423
0.501740
0.632220
0.460477
0.501007
0.348021
0.283323
0.226134
0.244718
0.264736
0.415546
0.206892
0.549056
0.252003
0.552535
0.286449
0.454684
0.267294
0.406543
0.328532
0.349441
0.394477
0.300743
0.429915
0.161723
0.544149
0.335669
0.501049
0.413847
0.505958
0.437457
0.584495
0.531333
0.834854
0.850320
0.841968
0.755311
0.461611
0.224458
0.425246
0.218045
0.502491
0.216050
0.548701
0.427414
0.487652
3.656411
2.260284
0.716514
0.356647
0.506614
0.338931
0.520866
0.383150
0.470142
0.428538
0.403237
0.453883
0.356541
0.514814
0.347776
0.644584
0.425936
0.559432
0.500642
0.488614
0.614893
0.450533
0.489612
0.342482
0.280775
0.221004
0.255235
0.254269
0.418188
0.189831
0.559917
0.236927
0.536999
0.324256
0.471441
0.299358
0.426160
0.351389
0.370954
0.414294
0.328408
0.445560
0.184295
0.500711
0.335586
0.494625
0.386450
0.452228
0.376480
0.530908
0.460702
0.759583
0.793881
0.810524
0.709195
0.431039
0.213350
0.440684
0.247411
0.515680
0.245272
0.561001
0.443316
0.501860
3.658094
2.262988
0.724949
0.383587
0.526361
0.352334
0.516844
0.361285
0.441736
0.391455
0.372878
0.447867
0.331252
0.483410
0.307271
0.629947
0.391591
0.544128
0.476971
0.477210
0.597777
0.441451
0.478220
0.337339
0.278895
0.213103
0.267912
0.245959
0.423376
0.168509
0.551307
0.211774
0.515214
0.300489
0.490429
0.332871
0.448362
0.377041
0.395322
0.436946
0.358743
0.464876
0.216129
0.458240
0.344154
0.490143
0.365801
0.400969
0.319350
0.484128
0.393688
0.680345
0.697551
0.773981
0.656485
0.403896
0.209336
0.458833
0.279092
0.531422
0.277010
0.575764
0.462104
0.518763
3.655681
2.258791
0.710192
0.358194
0.499210
0.308690
0.488717
0.320709
0.410138
0.356812
0.338094
0.420484
0.296011
0.455001
0.269022
0.614388
0.358273
0.531191
0.454021
0.467577
0.580863
0.433236
0.466824
0.332588
0.277668
0.199486
0.270692
0.239901
0.430923
0.150967
0.536469
0.192099
0.495994
0.275296
0.475151
0.340026
0.458058
0.399448
0.414883
0.448795
0.360044
0.487110
0.253079
0.419245
0.359667
0.448506
0.354520
0.356900
0.274351
0.451583
0.341116
0.602950
0.591515
0.734900
0.596314
0.380733
0.212433
0.479192
0.312099
0.549340
0.310213
0.592659
0.483257
0.537939
3.651454
2.251842
0.687402
0.321490
0.473773
0.266623
0.464009
0.282877
0.382364
0.326060
0.307261
0.397056
0.264818
0.430005
0.233783
0.589162
0.326227
0.520706
0.431931
0.459771
0.564210
0.425920
0.454730
0.328246
0.277079
0.187000
0.273842
0.236165
0.440535
0.138321
0.523264
0.179238
0.479527
0.255590
0.452659
0.308419
0.431211
0.366236
0.382615
0.419322
0.323630
0.484534
0.292175
0.386030
0.369185
0.384373
0.355148
0.326699
0.253713
0.440593
0.317423
0.536224
0.480426
0.696891
0.529616
0.362363
0.222049
0.501297
0.340309
0.560627
0.317763
0.590072
0.473165
0.523277
3.647769
2.245769
0.666894
0.287624
0.451769
0.226599
0.443071
0.248629
0.359003
0.300012
0.281249
0.377985
0.238705
0.408840
0.202638
0.565803
0.295827
0.512700
0.410917
0.453831
0.547930
0.418483
0.438201
0.323115
0.277106
0.175849
0.279867
0.234758
0.451836
0.131514
0.511785
0.174026
0.465962
0.242101
0.433286
0.280248
0.407575
0.335872
0.353288
0.393049
0.290310
0.458714
0.331802
0.359912
0.319201
0.327195
0.368944
0.316943
0.266067
0.442695
0.273228
0.489570
0.369879
0.626226
0.458552
0.349844
0.237011
0.493410
0.305453
0.539519
0.278319
0.569709
0.447517
0.500261
3.644593
2.240523
0.648693
0.257214
0.433414
0.189193
0.426129
0.218989
0.340529
0.279454
0.260935
0.363568
0.218835
0.391748
0.176946
0.544348
0.267279
0.507132
0.391014
0.449707
0.532013
0.403475
0.421796
0.314982
0.273785
0.166260
0.288389
0.235548
0.464572
0.131021
0.502019
0.176580
0.455316
0.235367
0.417183
0.256173
0.387423
0.308811
0.327328
0.370329
0.260795
0.437141
0.303785
0.341667
0.282349
0.281475
0.341459
0.330544
0.307667
0.411487
0.211803
0.469842
0.267701
0.557543
0.385533
0.343984
0.255894
0.474389
0.272766
0.521102
0.240226
0.552066
0.424892
0.480232
3.641888
2.236046
0.632766
0.231109
0.418897
0.155481
0.413357
0.195368
0.327350
0.265148
0.247201
0.354041
0.206439
0.378872
0.158487
0.524738
0.240754
0.503934
0.372166
0.447310
0.516379
0.389615
0.405516
0.307419
0.270428
0.158403
0.299042
0.238324
0.478570
0.136575
0.493910
0.186201
0.447545
0.235596
0.404484
0.237057
0.371047
0.285630
0.305251
0.351552
0.236060
0.420048
0.276231
0.331788
0.262003
0.252919
0.331229
0.363784
0.362015
0.414232
0.217975
0.476410
0.187272
0.504442
0.313259
0.344909
0.277359
0.458321
0.242783
0.505494
0.203784
0.537228
0.405548
0.463356
3.639632
2.232302
0.619147
0.210426
0.408366
0.127547
0.404865
0.179484
0.319736
0.257646
0.240656
0.349462
0.202288
0.370319
0.149143
0.507030
0.216662
0.503010
0.354438
0.446555
0.501029
0.376941
0.389338
0.300428
0.267867
0.152423
0.311488
0.229965
0.493586
0.147130
0.487433
0.201422
0.442594
0.242308
0.395283
0.223737
0.358701
0.267000
0.287634
0.337098
0.217283
0.407597
0.256802
0.330268
0.259636
0.246222
0.344208
0.403731
0.382576
0.444805
0.276516
0.497364
0.147114
0.472951
0.245011
0.351944
0.300280
0.445345
0.216280
0.492805
0.169592
0.525278
0.389759
0.449798
3.637806
2.229265
0.607876
0.196298
0.401843
0.108769
0.400605
0.172705
0.317647
0.256986
0.241279
0.349614
0.206152
0.366053
0.149750
0.491351
0.195626
0.504210
0.337984
0.447341
0.478787
0.365513
0.373274
0.294027
0.266088
0.148436
0.325378
0.221004
0.509326
0.161278
0.482565
0.220530
0.440343
0.254397
0.389551
0.216707
0.350489
0.253503
0.274946
0.327204
0.205522
0.399778
0.246142
0.336474
0.273373
0.260834
0.375792
0.434178
0.424838
0.489383
0.348420
0.515867
0.147097
0.465257
0.185173
0.363727
0.323762
0.435488
0.194192
0.483073
0.138646
0.516234
0.377720
0.439645
3.636390
2.226903
0.598966
0.189456
0.399168
0.102801
0.400332
0.175178
0.320677
0.262564
0.248303
0.353991
0.216754
0.365846
0.159257
0.477846
0.178439
0.507323
0.323016
0.449546
0.454805
0.355417
0.357384
0.288248
0.265069
0.146493
0.340343
0.214829
0.525472
0.177685
0.479264
0.241970
0.440595
0.270440
0.387100
0.215844
0.346298
0.245440
0.267394
0.321867
0.201273
0.396362
0.244067
0.349205
0.299302
0.289066
0.416069
0.440886
0.450153
0.530599
0.407741
0.517858
0.155340
0.476737
0.138795
0.378505
0.347152
0.428630
0.177467
0.476227
0.112583
0.510020
0.369475
0.432861
3.635344
2.225153
0.592273
0.189998
0.400084
0.110469
0.403700
0.185751
0.328232
0.273462
0.260671
0.362079
0.232618
0.369281
0.175413
0.466392
0.165595
0.512152
0.309480
0.453004
0.431294
0.346714
0.341737
0.283115
0.264772
0.146545
0.356035
0.211465
0.541914
0.195517
0.477397
0.264867
0.443086
0.289429
0.387702
0.220739
0.345940
0.242871
0.264969
0.320938
0.204399
0.397079
0.249956
0.367071
0.332963
0.321025
0.454216
0.413956
0.396420
0.488757
0.365662
0.497555
0.148127
0.497776
0.109691
0.394461
0.334516
0.424665
0.167127
0.472173
0.094344
0.506517
0.364964
0.429329
3.634634
2.223961
0.587655
0.197281
0.404273
0.128421
0.410310
0.202520
0.339618
0.288616
0.277210
0.373326
0.252292
0.375883
0.195923
0.456863
0.157496
0.518501
0.297327
0.457554
0.408225
0.339396
0.326322
0.278614
0.265148
0.148440
0.372235
0.210821
0.558552
0.214189
0.476832
0.288608
0.447548
0.310528
0.391094
0.230629
0.349141
0.245557
0.267425
0.324132
0.214070
0.401586
0.262666
0.388692
0.370419
0.348353
0.481187
0.356427
0.296618
0.391132
0.211119
0.468920
0.137744
0.518064
0.096018
0.409937
0.320321
0.423459
0.163880
0.470796
0.087842
0.505592
0.364056
0.428895
3.634234
2.223280
0.584985
0.210027
0.411330
0.152229
0.419688
0.223469
0.354058
0.306919
0.296739
0.387104
0.274450
0.385132
0.218948
0.449186
0.154345
0.526150
0.286577
0.463032
0.385558
0.333442
0.311122
0.274729
0.266147
0.151970
0.388772
0.212722
0.575232
0.233226
0.477447
0.312663
0.453696
0.332952
0.396936
0.244447
0.355490
0.252896
0.274228
0.330982
0.228925
0.409427
0.280672
0.412804
0.408607
0.364597
0.454903
0.308821
0.224978
0.382637
0.180224
0.476534
0.186599
0.530639
0.089912
0.423639
0.308688
0.424784
0.167579
0.471918
0.094471
0.507060
0.366494
0.431322
3.634118
2.223072
0.584137
0.226659
0.420748
0.178690
0.431268
0.246841
0.370712
0.327280
0.318118
0.402695
0.297902
0.396452
0.243109
0.443346
0.155993
0.534840
0.277347
0.469270
0.363335
0.328839
0.296167
0.271454
0.267713
0.156888
0.405455
0.216896
0.591728
0.252186
0.479121
0.336493
0.461209
0.355911
0.404782
0.260955
0.364422
0.263967