# vtk DataFile Version 2.0
Comment goes here
ASCII
DATASET UNSTRUCTURED_GRID
POINTS 6500 float
47.627109 1.065518 9.842967 
46.215450 1.067918 9.852233 
44.570550 1.070602 9.862412 
42.975072 1.072664 9.869340 
41.538826 1.073177 9.867798 
40.010979 1.074083 9.858919 
38.481537 1.076692 9.846700 
36.958612 1.079939 9.834387 
35.435835 1.081538 9.822687 
33.912799 1.078748 9.809351 
32.395861 1.068809 9.790324 
30.868561 1.051713 9.760256 
29.342972 1.042170 9.700862 
27.834282 1.036757 9.548520 
26.360968 0.994981 9.202922 
24.955587 0.940641 8.641198 
23.610493 0.878550 7.914165 
22.330419 0.804337 7.078325 
21.117753 0.721902 6.188869 
19.908952 0.640286 5.241281 
18.715879 0.557018 4.296722 
17.478583 0.454232 3.382534 
16.177412 0.355455 2.591278 
14.788392 0.286672 2.032167 
13.282931 0.267617 1.875584 
11.840071 0.316651 2.218528 
10.488241 0.393487 2.913530 
9.217922 0.473604 3.798693 
8.035429 0.556043 4.745972 
6.843601 0.652078 5.711020 
5.644876 0.750432 6.633916 
4.393068 0.833293 7.529456 
3.105068 0.902676 8.322224 
1.742542 0.958955 8.974221 
0.296436 0.994208 9.451800 
-1.196501 1.020833 9.720637 
-2.712946 1.041163 9.816729 
-4.236404 1.052513 9.832975 
-5.756770 1.057091 9.828885 
-7.281451 1.062932 9.815855 
-8.806376 1.071876 9.790778 
-10.315446 1.072872 9.716456 
-11.819326 1.059204 9.482553 
-13.297236 1.043517 9.080766 
-14.753885 1.036797 8.647728 
-16.251463 1.025059 8.351959 
-17.768465 1.016932 8.223255 
-19.279282 1.023642 8.187733 
-20.805536 1.035809 8.168370 
-22.330056 1.043227 8.149204 
-23.850892 1.061435 8.141556 
-25.373998 1.092718 8.179487 
-26.878839 1.109508 8.361021 
-28.361882 1.089858 8.708159 
-29.829769 1.050232 9.124237 
-31.307647 1.024492 9.486150 
-32.807806 1.007670 9.670382 
-34.332103 1.016212 9.742100 
-35.863945 1.037534 9.784689 
-37.377825 1.049379 9.815871 
-38.899110 1.057680 9.836549 
-40.423559 1.063873 9.848336 
-41.900494 1.068266 9.855026 
-43.566772 1.071765 9.858729 
47.627109 1.661755 9.735733 
46.215450 1.663903 9.745044 
44.570550 1.666270 9.755280 
42.975072 1.667935 9.762279 
41.538826 1.667977 9.760822 
40.010979 1.668393 9.752031 
38.481537 1.670560 9.739892 
36.958612 1.673349 9.727661 
35.435835 1.674411 9.716058 
33.912799 1.670918 9.702848 
32.395861 1.659964 9.684004 
30.868561 1.641163 9.654242 
29.342972 1.627739 9.595547 
27.834282 1.612203 9.445025 
26.360968 1.548728 9.103330 
24.955587 1.460521 8.547696 
23.610493 1.355021 7.828471 
22.330419 1.230582 7.001664 
21.117753 1.094198 6.121911 
19.908952 0.955226 5.184639 
18.715879 0.814756 4.250368 
17.478583 0.655932 3.346258 
16.177412 0.509095 2.563645 
14.788392 0.407603 2.010417 
13.282931 0.380499 1.855282 
11.840071 0.450151 2.194518 
10.488241 0.568533 2.882047 
9.217922 0.701818 3.757648 
8.035429 0.840920 4.694736 
6.843601 0.994800 5.649381 
5.644876 1.148646 6.562297 
4.393068 1.285301 7.448162 
3.105068 1.402404 8.232348 
1.742542 1.498025 8.877268 
0.296436 1.562054 9.349672 
-1.196501 1.605169 9.615543 
-2.712946 1.631949 9.710475 
-4.236404 1.644983 9.726418 
-5.756770 1.649764 9.722292 
-7.281451 1.654833 9.709400 
-8.806376 1.661223 9.684783 
-10.315446 1.655207 9.611723 
-11.819326 1.624925 9.380807 
-13.297236 1.583650 8.983623 
-14.753885 1.549364 8.555542 
-16.251463 1.515561 8.263742 
-17.768465 1.493251 8.137589 
-19.279282 1.491568 8.103575 
-20.805536 1.498025 8.085240 
-22.330056 1.501260 8.066826 
-23.850892 1.516551 8.059703 
-25.373998 1.547444 8.097704 
-26.878839 1.571574 8.277917 
-28.361882 1.572699 8.621320 
-29.829769 1.565921 9.031489 
-31.307647 1.576435 9.386882 
-32.807806 1.584948 9.566557 
-34.332103 1.604406 9.636313 
-35.863945 1.628904 9.678331 
-37.377825 1.642240 9.709244 
-38.899110 1.651424 9.729763 
-40.423559 1.658113 9.741461 
-41.900494 1.662771 9.748103 
-43.566772 1.666406 9.751782 
47.627109 2.197915 9.606630 
46.215450 2.199837 9.615996 
44.570550 2.201919 9.626301 
42.975072 2.203227 9.633386 
41.538826 2.202845 9.632031 
40.010979 2.202822 9.623346 
38.481537 2.204590 9.611303 
36.958612 2.206967 9.599171 
35.435835 2.207548 9.587684 
33.912799 2.203423 9.574626 
32.395861 2.191555 9.556002 
30.868561 2.171221 9.526609 
29.342972 2.154306 9.468754 
27.834282 2.129669 9.320424 
26.360968 2.046681 8.983427 
24.955587 1.928019 8.435127 
23.610493 1.783484 7.725301 
22.330419 1.613880 6.909369 
21.117753 1.428981 6.041298 
19.908952 1.238432 5.116445 
18.715879 1.046525 4.194560 
17.478583 0.837310 3.302584 
16.177412 0.647255 2.530378 
14.788392 0.516350 1.984232 
13.282931 0.482008 1.830840 
11.840071 0.570200 2.165611 
10.488241 0.725941 2.844145 
9.217922 0.907038 3.708233 
8.035429 1.097092 4.633052 
6.843601 1.302991 5.575171 
5.644876 1.506736 6.476072 
4.393068 1.691766 7.350289 
3.105068 1.851781 8.124142 
1.742542 1.982780 8.760544 
0.296436 2.072685 9.226717 
-1.196501 2.130627 9.489017 
-2.712946 2.163208 9.582553 
-4.236404 2.177757 9.598131 
-5.756770 2.182721 9.593961 
-7.281451 2.187095 9.581237 
-8.806376 2.191189 9.557172 
-10.315446 2.178866 9.485630 
-11.819326 2.133645 9.258312 
-13.297236 2.069361 8.866668 
-14.753885 2.010286 8.444557 
-16.251463 1.956642 8.157534 
-17.768465 1.921577 8.034452 
-19.279282 1.912347 8.002256 
-20.805536 1.913668 7.985157 
-22.330056 1.913141 7.967649 
-23.850892 1.925811 7.961157 
-25.373998 1.956352 7.999243 
-26.878839 1.987082 8.177867 
-28.361882 2.006890 8.516771 
-29.829769 2.029651 8.919827 
-31.307647 2.072765 9.267370 
-32.807806 2.104061 9.441560 
-34.332103 2.133334 9.508952 
-35.863945 2.160689 9.550282 
-37.377825 2.175366 9.580873 
-38.899110 2.185343 9.601200 
-40.423559 2.192478 9.612791 
-41.900494 2.197375 9.619376 
-43.566772 2.201131 9.623025 
47.627109 2.850708 9.439511 
46.215450 2.852353 9.448948 
44.570550 2.854088 9.459342 
42.975072 2.854962 9.466537 
41.538826 2.854064 9.465315 
40.010979 2.853505 9.456767 
38.481537 2.854788 9.444848 
36.958612 2.856664 9.432844 
35.435835 2.856657 9.421507 
33.912799 2.851763 9.408647 
32.395861 2.838783 9.390307 
30.868561 2.816584 9.361392 
29.342972 2.795418 9.304626 
27.834282 2.759699 9.159132 
26.360968 2.652953 8.828218 
24.955587 2.497212 8.289410 
23.610493 2.305151 7.591751 
22.330419 2.080556 6.789897 
21.117753 1.836591 5.936948 
19.908952 1.583245 5.028171 
18.715879 1.328711 4.122319 
17.478583 1.058143 3.246049 
16.177412 0.815468 2.487314 
14.788392 0.648752 1.950336 
13.282931 0.605597 1.799200 
11.840071 0.716363 2.128193 
10.488241 0.917591 2.795081 
9.217922 1.156900 3.644267 
8.035429 1.408991 4.553204 
6.843601 1.678222 5.479110 
5.644876 1.942722 6.364457 
4.393068 2.186649 7.223596 
3.105068 2.398910 7.984073 
1.742542 2.572983 8.609448 
0.296436 2.694394 9.067556 
-1.196501 2.770390 9.325234 
-2.712946 2.810033 9.416962 
-4.236404 2.826426 9.432068 
-5.756770 2.831613 9.427841 
-7.281451 2.835141 9.415333 
-8.806376 2.836438 9.391984 
-10.315446 2.816438 9.322408 
-11.819326 2.753027 9.099746 
-13.297236 2.660729 8.715274 
-14.753885 2.571472 8.300889 
-16.251463 2.493671 8.020051 
-17.768465 2.443077 7.900944 
-19.279282 2.424658 7.871101 
-20.805536 2.419727 7.855602 
-22.330056 2.414620 7.839267 
-23.850892 2.424097 7.833592 
-25.373998 2.454211 7.871788 
-26.878839 2.492977 8.048355 
-28.361882 2.535531 8.381435 
-29.829769 2.594255 8.775285 
-31.307647 2.677062 9.112667 
-32.807806 2.736097 9.279754 
-34.332103 2.777320 9.344087 
-35.863945 2.808153 9.384527 
-37.377825 2.824463 9.414700 
-38.899110 2.835405 9.434780 
-40.423559 2.843084 9.446231 
-41.900494 2.848272 9.452742 
-43.566772 2.852176 9.456354 
47.627109 3.509619 9.247004 
46.215450 3.510986 9.256522 
44.570550 3.512371 9.267018 
42.975072 3.512807 9.274341 
41.538826 3.511388 9.273271 
40.010979 3.510287 9.264881 
38.481537 3.511082 9.253105 
36.958612 3.512452 9.241249 
35.435835 3.511852 9.230086 
33.912799 3.506182 9.217452 
32.395861 3.492078 9.199440 
30.868561 3.467996 9.171076 
29.342972 3.442540 9.115562 
27.834282 3.395635 8.973337 
26.360968 3.264909 8.649429 
24.955587 3.071740 8.121556 
23.610493 2.831707 7.437912 
22.330419 2.551607 6.652275 
21.117753 2.248021 5.816744 
19.908952 1.931290 4.926486 
18.715879 1.613542 4.039102 
17.478583 1.281046 3.180926 
16.177412 0.985259 2.437708 
14.788392 0.782395 1.911291 
13.282931 0.730345 1.762754 
11.840071 0.863897 2.085089 
10.488241 1.111037 2.738564 
9.217922 1.409104 3.570583 
8.035429 1.723813 4.461226 
6.843601 2.056971 5.368454 
5.644876 2.382795 6.235885 
4.393068 2.686171 7.077655 
3.105068 2.951169 7.822726 
1.742542 3.168720 8.435397 
0.296436 3.321931 8.884215 
-1.196501 3.416149 9.136569 
-2.712946 3.462921 9.226214 
-4.236404 3.481175 9.240776 
-5.756770 3.486587 9.236483 
-7.281451 3.489262 9.224225 
-8.806376 3.487736 9.201701 
-10.315446 3.459987 9.134389 
-11.819326 3.378216 8.917091 
-13.297236 3.257641 8.540880 
-14.753885 3.137919 8.135396 
-16.251463 3.035734 7.861682 
-17.768465 2.969466 7.747154 
-19.279282 2.941772 7.720021 
-20.805536 2.930530 7.706366 
-22.330056 2.920799 7.691382 
-23.850892 2.927055 7.686648 
-25.373998 2.956736 7.724970 
-26.878839 3.003614 7.899167 
-28.361882 3.069127 8.225540 
-29.829769 3.164153 8.608784 
-31.307647 3.287024 8.934460 
-32.807806 3.374058 9.093368 
-34.332103 3.427342 9.154177 
-35.863945 3.461687 9.193590 
-37.377825 3.479644 9.223282 
-38.899110 3.491562 9.243078 
-40.423559 3.499789 9.254368 
-41.900494 3.505270 9.260793 
-43.566772 3.509324 9.264361 
47.627109 4.105807 9.025476 
46.215450 4.106922 9.035087 
44.570550 4.107990 9.045701 
42.975072 4.108029 9.053172 
41.538826 4.106139 9.052277 
40.010979 4.104548 9.044069 
38.481537 4.104901 9.032457 
36.958612 4.105813 9.020772 
35.435835 4.104676 9.009807 
33.912799 4.098304 8.997434 
32.395861 4.083185 8.979800 
30.868561 4.057398 8.952069 
29.342972 4.028061 8.897998 
27.834282 3.971035 8.759533 
26.360968 3.818611 8.443688 
24.955587 3.591578 7.928398 
23.610493 3.308139 7.260882 
22.330419 2.977818 6.493906 
[...]
POINT_DATA 6500
SCALARS sample_scalars float 1
LOOKUP_TABLE my_table
3.640590
2.234500
0.628366
0.193561
0.402849
0.112225
0.400023
0.174540
0.315220
0.255702
0.231180
0.341083
0.180539
0.392243
0.173639
0.533850
0.218583
0.526512
0.322891
0.461113
0.471421
0.390197
0.380764
0.363562
0.201183
0.254263
0.227386
0.300011
0.405136
0.131769
0.512831
0.122077
0.533220
0.122144
0.452849
0.127557
0.402308
0.178705
0.322530
0.254588
0.248007
0.315661
0.227516
0.382131
0.269127
0.440556
0.526018
0.407180
0.348265
0.395637
0.269229
0.485110
0.323139
0.528638
0.417220
0.395410
0.177639
0.407627
0.144938
0.465223
0.073311
0.505231
0.363569
0.429550
3.640172
2.233871
0.626335
0.185196
0.398995
0.098485
0.396937
0.168857
0.312567
0.251928
0.224633
0.334113
0.165983
0.388727
0.164003
0.532651
0.220159
0.527189
0.329923
0.465217
0.480211
0.396062
0.386631
0.366714
0.202374
0.256952
0.228255
0.304944
0.403330
0.134447
0.510069
0.117397
0.531368
0.099946
0.445296
0.093388
0.394216
0.163110
0.315101
0.246806
0.242770
0.325734
0.267494
0.373238
0.269081
0.401238
0.454085
0.389209
0.321957
0.378615
0.236397
0.454580
0.296321
0.515349
0.392403
0.395514
0.216472
0.398495
0.119643
0.459190
0.024990
0.501171
0.358592
0.425826
3.640088
2.233709
0.625659
0.191141
0.401824
0.108978
0.399261
0.173085
0.314544
0.254967
0.230488
0.340750
0.180306
0.390198
0.170943
0.529802
0.216133
0.526369
0.324338
0.461489
0.477396
0.392958
0.385487
0.365379
0.201835
0.256259
0.220790
0.301403
0.402084
0.131523
0.511430
0.123212
0.531682
0.126136
0.451359
0.128227
0.401654
0.177017
0.321566
0.253758
0.248053
0.315527
0.225091
0.338445
0.318069
0.395785
0.374642
0.423408
0.345901
0.395729
0.251176
0.438999
0.302627
0.517952
0.361597
0.436145
0.180509
0.407834
0.143088
0.464386
0.067141
0.504362
0.362387
0.428589
3.640331
2.234144
0.627363
0.187214
0.399957
0.101725
0.397419
0.169067
0.312305
0.251515
0.224780
0.335248
0.168923
0.390039
0.167277
0.533841
0.222449
0.525511
0.333816
0.463735
0.487956
0.397908
0.392342
0.368132
0.203946
0.259765
0.217106
0.305144
0.397043
0.130235
0.505294
0.115171
0.532351
0.108561
0.447891
0.108276
0.396930
0.167653
0.316936
0.248347
0.243023
0.318526
0.238021
0.331785
0.327892
0.386792
0.339114
0.422595
0.361386
0.418653
0.289254
0.452679
0.332047
0.529137
0.364554
0.434956
0.199199
0.401322
0.126197
0.460558
0.041143
0.502082
0.359707
0.426646
3.642301
2.237444
0.639358
0.196087
0.404019
0.115131
0.400657
0.175729
0.315274
0.253423
0.223028
0.331017
0.158400
0.399422
0.178256
0.552377
0.246809
0.524531
0.356527
0.468137
0.507411
0.406519
0.404266
0.372696
0.207110
0.265184
0.209785
0.312281
0.384998
0.129902
0.489952
0.103816
0.540241
0.080462
0.449872
0.091089
0.395764
0.166932
0.316981
0.248063
0.241263
0.325039
0.248806
0.331514
0.337971
0.387780
0.321263
0.390283
0.378189
0.443960
0.330482
0.473163
0.366323
0.545492
0.382470
0.435804
0.223839
0.394141
0.111927
0.459440
0.047800
0.503722
0.362924
0.429903
3.644119
2.240502
0.650360
0.207568
0.409662
0.131849
0.404938
0.183385
0.318592
0.256227
0.224304
0.330959
0.157675
0.409343
0.193065
0.568546
0.265636
0.522818
0.372353
0.469314
0.520952
0.411353
0.412688
0.375346
0.207575
0.267388
0.198990
0.315788
0.373390
0.127615
0.476582
0.097228
0.536430
0.074788
0.456872
0.103833
0.400234
0.176048
0.321361
0.252196
0.242968
0.322626
0.223819
0.325294
0.365909
0.381756
0.322804
0.345118
0.356025
0.473313
0.383733
0.499178
0.406029
0.570451
0.400893
0.463166
0.213473
0.393198
0.114968
0.461726
0.073244
0.507312
0.368312
0.434650
3.646124
2.243932
0.662743
0.240028
0.427391
0.178130
0.420877
0.213314
0.335417
0.276655
0.249114
0.351007
0.197980
0.427490
0.229067
0.582185
0.283166
0.525357
0.378859
0.467919
0.524164
0.410695
0.414938
0.375011
0.204341
0.264862
0.186953
0.314919
0.370077
0.136767
0.477063
0.130142
0.545462
0.146841
0.479700
0.180606
0.424348
0.220023
0.345316
0.279566
0.269053
0.324329
0.165460
0.342883
0.271397
0.283195
0.374909
0.296855
0.288914
0.421353
0.336091
0.543223
0.411031
0.565495
0.439188
0.440428
0.169954
0.414253
0.171377
0.478374
0.144032
0.521886
0.387706
0.450817
3.647703
2.246592
0.672065
0.263002
0.440942
0.208098
0.433844
0.236768
0.350271
0.294244
0.268725
0.365820
0.223688
0.440864
0.252427
0.591715
0.297465
0.529441
0.386648
0.469999
0.529656
0.412895
0.418353
0.376142
0.204240
0.265590
0.181769
0.317165
0.369958
0.148366
0.479804
0.154074
0.553136
0.181637
0.493708
0.216354
0.439899
0.246719
0.362078
0.299240
0.289274
0.335099
0.159953
0.363487
0.239665
0.242162
0.377359
0.287803
0.269857
0.410526
0.324104
0.537078
0.408188
0.547261
0.459276
0.410350
0.167202
0.427966
0.201591
0.490108
0.179553
0.532800
0.402256
0.463338
3.649637
2.249845
0.683289
0.289579
0.457578
0.240980
0.449990
0.264205
0.368873
0.315915
0.292401
0.384027
0.252787
0.456997
0.278877
0.602817
0.314258
0.535313
0.395740
0.473318
0.535454
0.415665
0.421830
0.377492
0.204592
0.266744
0.178124
0.320307
0.371574
0.163346
0.484857
0.181078
0.563359
0.217622
0.510182
0.253302
0.458371
0.276525
0.382189
0.322638
0.313626
0.351186
0.170145
0.392094
0.230676
0.226145
0.336689
0.293646
0.268419
0.413248
0.330302
0.540756
0.423233
0.541565
0.450369
0.388116
0.174728
0.444427
0.234060
0.504510
0.216245
0.546318
0.420017
0.478816
3.651950
2.253724
0.696437
0.318984
0.477056
0.275875
0.469071
0.294645
0.390788
0.340996
0.319333
0.405221
0.284295
0.475712
0.307729
0.615540
0.333328
0.542944
0.406183
0.477900
0.541632
0.419042
0.425411
0.379083
0.205425
0.268354
0.176133
0.324375
0.374854
0.180922
0.492079
0.209998
0.575921
0.254277
0.528935
0.291009
0.479465
0.308621
0.405220
0.349090
0.341293
0.371808
0.192101
0.421380
0.237243
0.227676
0.308982
0.311110
0.282496
0.427824
0.351787
0.554342
0.452815
0.545518
0.433633
0.374171
0.189990
0.463293
0.268032
0.521408
0.253724
0.562313
0.440685
0.497052
3.654632
2.258211
0.711348
0.350497
0.499037
0.312101
0.490747
0.327271
0.415514
0.368826
0.348810
0.429001
0.317548
0.496679
0.338331
0.629686
0.354229
0.552289
0.417794
0.483714
0.548110
0.422988
0.429052
0.380899
0.206738
0.270410
0.175952
0.329321
0.379855
0.200442
0.501490
0.240185
0.590760
0.291381
0.549692
0.329201
0.502840
0.342360
0.430707
0.377972
0.371558
0.396105
0.221297
0.385387
0.251713
0.239196
0.291025
0.338724
0.310964
0.454293
0.387474
0.576687
0.494597
0.557924
0.429532
0.366915
0.210364
0.484307
0.303047
0.540583
0.291697
0.580583
0.463870
0.517753
3.657669
2.263279
0.727838
0.383542
0.523160
0.349184
0.514658
0.361456
0.442560
0.398813
0.380232
0.454956
0.352044
0.519556
0.358454
0.642630
0.376550
0.563271
0.430386
0.490708
0.554805
0.427459
0.432706
0.382922
0.208524
0.272892
0.177669
0.335086
0.386589
0.221384
0.513057
0.265109
0.593335
0.280658
0.531821
0.301102
0.502201
0.365972
0.458206
0.408738
0.403810
0.423283
0.254541
0.356522
0.268741
0.255532
0.280966
0.375605
0.352520
0.493057
0.436794
0.608127
0.547171
0.578885
0.435168
0.365095
0.234500
0.507222
0.338769
0.561782
0.329947
0.600889
0.489174
0.540599
3.660518
2.265728
0.727758
0.369401
0.508462
0.330072
0.509050
0.364081
0.449902
0.407198
0.382716
0.445865
0.330635
0.503200
0.327286
0.628120
0.371958
0.570995
0.443870
0.498835
0.561708
0.432439
0.436370
0.385150
0.210781
0.275798
0.181261
0.341633
0.392096
0.216878
0.506760
0.234171
0.578200
0.243823
0.512280
0.263113
0.478813
0.331570
0.433354
0.388790
0.379090
0.452663
0.289825
0.333982
0.285216
0.274643
0.277898
0.399636
0.404271
0.542408
0.496846
0.648682
0.608170
0.609366
0.448369
0.368455
0.262050
0.484756
0.313982
0.548802
0.307648
0.589999
0.477023
0.530971
3.657575
2.260955
0.712709
0.337810
0.486091
0.294226
0.486193
0.330735
0.423054
0.377395
0.351577
0.420688
0.296856
0.482390
0.297526
0.614859
0.351675
0.559064
0.435665
0.502064
0.568883
0.437945
0.438203
0.387596
0.213515
0.279143
0.186606
0.348168
0.382683
0.196339
0.495077
0.204080
0.565389
0.207639
0.494930
0.225844
0.457699
0.298445
0.407897
0.359504
0.348477
0.423023
0.325904
0.317091
0.300281
0.297777
0.281796
0.371995
0.379382
0.531004
0.505160
0.696399
0.673835
0.649210
0.468276
0.377710
0.293267
0.463673
0.278798
0.528994
0.270150
0.571098
0.453202
0.509493
3.654985
2.256765
0.699327
0.308097
0.466090
0.259626
0.465664
0.299028
0.398423
0.349621
0.322311
0.397760
0.264523
0.463777
0.269756
0.603061
0.333135
0.548655
0.426054
0.494527
0.568917
0.434444
0.436445
0.387877
0.216725
0.282930
0.193563
0.342501
0.374773
0.177294
0.485448
0.175294
0.554979
0.172472
0.480046
0.189716
0.439218
0.267153
0.384842
0.332437
0.320286
0.396014
0.354350
0.304947
0.316227
0.326904
0.293506
0.350367
0.351438
0.512449
0.486572
0.747395
0.713883
0.696377
0.494493
0.393993
0.328269
0.444724
0.244477
0.511339
0.233167
0.554351
0.431699
0.490300
3.652762
2.253185
0.687780
0.280922
0.448813
0.226911
0.447817
0.269604
0.376490
0.324447
0.295510
0.377496
0.234229
0.447690
0.244699
0.592906
0.316752
0.539865
0.417673
0.488112
0.566204
0.431238
0.434773
0.386540
0.220074
0.286676
0.185292
0.337626
0.368414
0.160289
0.477919
0.148530
0.547016
0.138947
0.467859
0.155420
0.423704
0.238426
0.364661
0.308197
0.295217
0.372148
0.319376
0.296574
0.336446
0.361180
0.313882
0.336245
0.332941
0.501266
0.475148
0.733386
0.709114
0.722857
0.525678
0.417449
0.356186
0.428175
0.211437
0.496079
0.197036
0.539983
0.412914
0.473702
3.650888
2.250186
0.678051
0.256973
0.434513
0.196880
0.432930
0.243213
0.357709
0.302482
0.271876
0.360338
0.206859
0.434302
0.223109
0.584311
0.302701
0.532783
0.410462
0.482843
0.563731
0.428548
0.433132
0.385400
0.217718
0.284481
0.177417
0.333544
0.363793
0.146021
0.472716
0.125081
0.541704
0.108565
0.458491
0.124307
0.411429
0.213194
0.347796
0.287443
0.274077
0.351744
0.286197
0.292007
0.364244
0.333288
0.343294
0.330343
0.324897
0.497042
0.470211
0.718745
0.703552
0.707775
0.559219
0.447165
0.319808
0.414367
0.180353
0.483410
0.162202
0.528142
0.397166
0.459923
3.649359
2.247760
0.670180
0.237201
0.423472
0.170912
0.421308
0.220941
0.342603
0.284482
0.252321
0.346763
0.183748
0.423827
0.206006
0.577279
0.291251
0.527487
0.404435
0.478759
0.561466
0.426369
0.431503
0.384452
0.215774
0.282658
0.171159
0.330276
0.361026
0.135357
0.469970
0.107138
0.539155
0.084712
0.452065
0.099269
0.402656
0.192793
0.334734
0.270967
0.257823
0.335286
0.255102
0.292240
0.343762
0.302335
0.381181
0.332663
0.326764
0.498485
0.470141
0.703785
0.694617
0.695094
0.591594
0.481432
0.283663
0.403640
0.152453
0.473540
0.129690
0.518993
0.384814
0.449209
3.648182
2.245918
0.664259
0.222736
0.415953
0.151129
0.413235
0.204171
0.331696
0.271265
0.237875
0.337207
0.166669
0.416496
0.194555
0.571887
0.282749
0.524035
0.399676
0.475904
0.559434
0.424720
0.429896
0.383704
0.214269
0.281229
0.166717
0.327864
0.360136
0.129174
0.469688
0.097682
0.539356
0.073728
0.448673
0.085560
0.397587
0.178850
0.325926
0.259582
0.247398
0.323365
0.227138
0.298984
0.307731
0.270966
0.377213
0.343040
0.337840
0.505225
0.474661
0.687489
0.680663
0.683234
0.594454
0.450648
0.249086
0.396261
0.129809
0.466651
0.101768
0.512683
0.376200
0.441790
3.647380
2.244696
0.660451
0.214736
0.412184
0.140266
0.408956
0.194408
0.325455
0.263591
0.229519
0.332002
0.157525
0.412554
0.189838
0.568327
0.277631
0.522457
0.396378
0.474335
0.557740
0.423657
0.428372
0.383181
0.213236
0.280236
0.164206
0.326375
0.361023
0.128082
0.471713
0.098955
0.542135
0.080532
0.448372
0.088262
0.396331
0.172913
0.321724
0.253976
0.243512
0.316595
0.204368
0.313914
0.274105
0.245362
0.334403
0.361120
0.357659
0.509381
0.459551
0.670103
0.661288
0.670727
0.554552
0.418240
0.217704
0.392373
0.115504
0.462880
0.083286
0.509341
0.371620
0.437867
3.646951
2.244094
0.658782
0.213850
0.412223
0.140281
0.408550
0.192646
0.324109
0.261899
0.227865
0.331305
0.157589
0.412061
0.192241
0.566621
0.276057
0.522749
0.394578
0.474058
0.556394
0.423185
0.426934
0.382887
0.212689
0.279689
0.163713
0.325822
0.363640
0.132130
0.475964
0.110397
0.544570
0.101287
0.451100
0.105795
0.398853
0.175661
0.322246
0.254454
0.246379
0.315463
0.190135
0.337166
0.250583
0.232283
0.299455
0.386422
0.368076
0.448326
0.379758
0.653240
0.637386
0.657051
0.512274
0.391505
0.191034
0.392024
0.112620
0.462272
0.080786
0.508992
0.371179
0.437496
3.646877
2.244077
0.659143
0.219964
0.415959
0.150882
0.411931
0.198914
0.327615
0.266190
0.232950
0.335088
0.166743
0.414886
0.201270
0.566610
0.277871
0.524888
0.394146
0.475034
0.555306
0.423253
0.425533
0.382796
0.212613
0.279565
0.165294
0.326159
0.368018
0.140785
0.482459
0.129214
0.546993
0.129305
0.456689
0.132138
0.404986
0.186514
0.327364
0.260859
0.255648
0.320117
0.187761
0.367192
0.244513
0.236014
0.278854
0.357590
0.309922
0.393203
0.299368
0.614628
0.576266
0.642790
0.466394
0.371051
0.170558
0.395185
0.121824
0.464778
0.095176
0.511568
0.374782
0.440592
3.647148
2.244628
0.661463
0.232380
0.423210
0.169896
0.418931
0.212362
0.335739
0.276091
0.244257
0.343141
0.183512
0.420870
0.215919
0.568202
0.282882
0.528822
0.395014
0.477228
0.554440
0.423835
0.424144
0.382896
0.213002
0.279852
0.168895
0.327356
0.374095
0.153172
0.491105
0.152551
0.551217
0.160638
0.464939
0.162838
0.414476
0.204017
0.336776
0.272664
0.270536
0.330255
0.198146
0.401398
0.258355
0.255348
0.277529
0.314623
0.262945
0.350983
0.225942
0.538110
0.477071
0.629813
0.416211
0.357567
0.158061
0.401716
0.140626
0.470298
0.120314
0.516967
0.382233
0.447008
3.647769
2.245753
0.665737
0.250081
0.433747
0.194755
0.429321
0.231655
0.348099
0.290956
0.260887
0.355098
0.205897
0.429849
0.235034
0.571412
0.290930
0.534475
0.397209
0.480612
0.553832
0.424935
0.422791
0.383193
0.213857
0.280557
0.174346
0.329408
0.381706
0.168365
0.501671
0.178444
0.557176
0.193414
0.475635
0.195601
0.427010
0.226493
0.350054
0.289109
0.290043
0.345179
0.219065
0.405947
0.287685
0.285981
0.295911
0.288353
0.239290
0.332715
0.182933
0.469452
0.369851
0.575143
0.362000
0.351725
0.154974
0.411365
0.165643
0.478680
0.150776
0.525059
0.393258
0.456559
3.648757
2.247476
0.672002
0.272002
0.447306
0.223448
0.442829
0.255417
0.364225
0.310018
0.281819
0.370501
0.232130
0.441655
0.257566
0.576318
0.301857
0.541747
0.400817
0.485164
0.553574
0.426580
0.418943
0.383703
0.215185
0.281702
0.181404
0.332322
0.390620
0.185569
0.513848
0.205723
0.564823
0.226719
0.488555
0.229302
0.442240
0.252499
0.366712
0.309369
0.313176
0.363956
0.246778
0.378549
0.325898
0.324153
0.330487
0.285880
0.249481
0.345937
0.200160
0.421020
0.261268
0.515702
0.306715
0.353961
0.161400
0.423807
0.194355
0.489735
0.183844
0.535695
0.407535
0.469026
3.650100
2.249778
0.680134
0.297080
0.463534
0.254524
0.459098
0.282395
0.383551
0.332453
0.306072
0.388871
0.260946
0.455976
0.282553
0.582791
0.315247
0.550537
0.405729
0.490813
0.553627
0.424163
0.412387
0.380885
0.216963
0.283262
0.189869
0.336044
0.400734
0.204185
0.527502
0.233778
0.574019
0.260214
0.503438
0.263425
0.459811
0.280922
0.386219
0.332640
0.339070
0.385710
0.278284
0.361003
0.368400
0.367170
0.376395
0.308647
0.290812
0.387247
0.265914
0.404194
0.165144
0.471232
0.256095
0.364174
0.175803
0.438736
0.225248
0.503230
0.218185
0.548663
0.424647
0.484106
3.651776
2.252616
0.689934
0.324403
0.482038
0.287009
0.477727
0.311582
0.405492
0.357494
0.332795
0.409726
0.291469
0.472434
0.309209
0.590609
0.330596
0.560728
0.411744
0.497464
0.550763
0.417441
0.405913
0.377788
0.219068
0.284912
0.197310
0.340486
0.411988
0.223765
0.542553
0.262255
0.584572
0.293728
0.520003
0.297681
0.479361
0.310941
0.408049
0.358205
0.367005
0.409722
0.311768
0.353028
0.412498
0.377422
0.429392
0.351266
0.351188
0.445767
0.349132
0.421615
0.123527
0.450396
0.218664
0.381447
0.195809
0.455838
0.257420
0.518897
0.253094
0.563710
0.444145
0.501449
3.653772
2.255968
0.701254
0.353296
0.502452
0.320296
0.498343
0.342257
0.429527
0.384499
0.361307
0.432602
0.323074
0.490701
0.336978
0.599629
0.347520
0.572187
0.411953
0.492562
0.541018
0.411246
0.399478
0.374914
0.215317
0.280531
0.191692
0.334211
0.410995
0.214810
0.544290
0.263546
0.586601
0.317074
0.536934
0.331850
0.500544
0.341977
0.431729
0.385470
0.396396
0.435399
0.346100
0.353616
0.456733
0.392124
0.485896
0.405413
0.418927
0.509445
0.401045
0.463677
0.171642
0.457668
0.204291
0.404219
0.219171
0.474774
0.290308
0.536461
0.288195
0.580585
0.465615
0.520726
3.656091
2.259836
0.714026
0.372316
0.508392
0.330239
0.509575
0.364577
0.450472
0.410966
0.391086
0.457080
0.355313
0.493561
0.319007
0.584667
0.330001
0.563917
0.394973
0.484378
0.531473
0.405594
0.393084
0.372263
0.212006
0.276545
0.187763
0.326855
0.408194
0.197445
0.539627
0.240505
0.571335
0.290752
0.518014
0.310679
0.496445
0.352233
0.448359
0.401769
0.382972
0.445877
0.380557
0.361169
0.500318
0.418463
0.540150
0.459404
0.480139
0.562404
0.456152
0.512946
0.247910
0.490022
0.216522
0.430592
0.244134
0.495194
0.323547
0.555661
0.323287
0.598255
0.483351
0.534049
3.658691
2.260324
0.701977
0.339886
0.485750
0.294246
0.486645
0.331203
0.423731
0.381609
0.366021
0.444651
0.332691
0.470806
0.288709
0.566524
0.304142
0.554365
0.378864
0.477355
0.522195
0.400519
0.386770
0.369849
0.209162
0.272986
0.185570
0.320311
0.406873
0.182032
0.536826
0.219811
0.557602
0.266774
0.501023
0.281617
0.476407
0.321102
0.423382
0.373665
0.355982
0.424540
0.414742
0.373930
0.538984
0.452374
0.585421
0.499891
0.519857
0.588057
0.518075
0.552269
0.312955
0.538077
0.246909
0.458626
0.269455
0.508822
0.329516
0.548758
0.294975
0.578817
0.459050
0.512130
3.655276
2.254938
0.684999
0.308991
0.465303
0.259195
0.465927
0.299366
0.399174
0.354274
0.337823
0.422240
0.303517
0.450036
0.259924
0.549809
0.279515
0.546367
0.363838
0.471527
0.513293
0.396066
0.380595
0.367691
0.206809
0.269888
0.185071
0.314639
0.406886
0.168922
0.535701
0.201880
0.545491
0.245462
0.486049
0.254498
0.458563
0.291628
0.400524
0.347623
0.331539
0.406172
0.419038
0.390624
0.560601
0.488809
0.615003
0.514673
0.524649
0.572611
0.505975
0.569096
0.352172
0.562425
0.282625
0.486501
0.294350
0.489977
0.297561
0.530181
0.259004
0.561366
0.436859
0.492338
3.652225
2.250138
0.669631
0.279912
0.447209
0.225248
0.447593
0.269390
0.377076
0.329302
0.311854
0.402120
0.276309
0.431371
0.232947
0.534476
0.256220
0.539940
0.349872
0.466880
0.504703
0.392203
0.374523
0.365770
0.204940
0.267235
0.186263
0.309828
0.408244
0.158542
0.536273
0.187332
0.534986
0.227399
0.473151
0.229790
0.443054
0.264157
0.380025
0.323973
0.310064
0.390949
0.411124
0.410225
0.584985
0.522343
0.622422
0.494788
0.485337
0.510320
0.430093
0.558227
0.358250
0.562260
0.313474
0.512607
0.318363
0.473056
0.266817
0.513628
0.223556
0.545985
0.416970
0.474809
3.649520
2.245901
0.655883
0.253104
0.431660
0.192759
0.431848
0.241801
0.357783
0.307151
0.288609
0.384585
0.251611
0.414970
0.208265
0.520505
0.234439
0.535100
0.336963
0.463396
0.496375
0.388897
0.368522
0.364068
0.203544
0.265014
0.189090
0.305867
0.410943
0.151332
0.538552
0.176867
0.526086
0.213291
0.462405
0.208194
0.430042
0.239225
0.362186
0.303158
0.292077
0.379081
0.406972
0.431747
0.610572
0.547719
0.601807
0.431723
0.362102
0.389918
0.269712
0.455517
0.331753
0.552056
0.332230
0.535537
0.341261
0.458205
0.237662
0.499241
0.188740
0.532783
0.399625
0.459710
3.647159
2.242221
0.643821
0.229206
0.418845
0.162364
0.418896
0.217344
0.341666
0.288349
0.268671
0.369919
0.230091
0.401024
0.186583
0.507957
0.214516
0.531840
0.325191
0.461061
0.488314
0.386140
0.362593
0.362578
0.202617
0.263222
0.193423
0.302757
0.414898
0.147598
0.537179
0.171015
0.518806
0.203732
0.453868
0.190523
0.419659
0.217524
0.347313
0.285665
0.278085
0.370690
0.406419
0.454285
0.635768
0.560332
0.548798
0.311204
0.267305
0.418162
0.276287
0.405448
0.181192
0.537496
0.334062
0.554173
0.363063
0.445535
0.210636
0.487154
0.154777
0.521858
0.385076
0.447206
3.645151
2.239110
0.633561
0.209014
0.408906
0.135117
0.408882
0.196942
0.329045
0.273405
0.252612
0.358317
0.212430
0.389726
0.168791
0.496997
0.197003
0.530099
0.314751
0.459853
0.480608
0.383945
0.356787
0.361310
0.202159
0.261872
0.199046
0.300516
0.419917
0.147359
0.532398
0.169863
0.513169
0.198928
0.447539
0.177496
0.411942
0.199815