# vtk DataFile Version 2.0
Comment goes here
ASCII
DATASET UNSTRUCTURED_GRID
POINTS 6500 float
47.627109 1.059090 9.932984 
46.218356 1.064185 9.972410 
44.576301 1.069866 10.016990 
42.982381 1.074154 10.053012 
41.549518 1.074911 10.063012 
40.023905 1.074752 10.057565 
38.496721 1.075928 10.048090 
36.976072 1.077785 10.036291 
35.455603 1.078160 10.020447 
33.934972 1.074561 9.997387 
32.420622 1.064652 9.962839 
30.896136 1.049158 9.913723 
29.373428 1.040483 9.843174 
27.866481 1.034732 9.685785 
26.398798 0.995511 9.327778 
24.980058 0.947230 8.802916 
23.625883 0.888495 8.110298 
22.345969 0.812596 7.269886 
21.139907 0.728902 6.372623 
19.931549 0.645878 5.432398 
18.733747 0.561184 4.497483 
17.508436 0.458227 3.572344 
16.221985 0.358336 2.757066 
14.845590 0.287859 2.183835 
13.340214 0.267982 2.023080 
11.898804 0.318547 2.359110 
10.539336 0.398449 3.041337 
9.260487 0.477795 3.906342 
8.069076 0.554302 4.833758 
6.876138 0.645036 5.794536 
5.681980 0.741933 6.724859 
4.430917 0.825405 7.620463 
3.141476 0.894708 8.399480 
1.774233 0.951915 9.035287 
0.327312 0.990708 9.508195 
-1.161927 1.019171 9.783355 
-2.674189 1.041066 9.910481 
-4.194455 1.054161 9.965659 
-5.712413 1.058953 9.983347 
-7.234916 1.064439 9.980289 
-8.757531 1.074830 9.954214 
-10.263691 1.082316 9.865462 
-11.771840 1.090452 9.654916 
-13.262415 1.103373 9.330520 
-14.737827 1.108822 8.975066 
-16.236186 1.087296 8.695411 
-17.750882 1.057130 8.550166 
-19.258936 1.046395 8.502026 
-20.782822 1.051891 8.479545 
-22.304949 1.057221 8.464924 
-23.823447 1.076887 8.478630 
-25.343885 1.115910 8.544958 
-26.856484 1.153881 8.674792 
-28.359566 1.153354 8.881743 
-29.856085 1.110086 9.161460 
-31.340270 1.062907 9.474931 
-32.831630 1.027953 9.731611 
-34.348780 1.025566 9.863883 
-35.877560 1.040339 9.910019 
-37.389186 1.049300 9.934611 
-38.908165 1.056163 9.951343 
-40.430380 1.061554 9.962799 
-41.905152 1.065272 9.970527 
-43.569250 1.068092 9.976604 
47.627109 1.654257 9.825942 
46.218356 1.659528 9.865336 
44.576301 1.665369 9.909888 
42.982381 1.669624 9.945916 
41.549518 1.669968 9.955991 
40.023905 1.669176 9.950656 
38.496721 1.669713 9.941297 
36.976072 1.670918 9.929615 
35.455603 1.670578 9.913899 
33.934972 1.666150 9.890989 
32.420622 1.655212 9.856626 
30.896136 1.638248 9.807774 
29.373428 1.625941 9.737879 
27.866481 1.610156 9.582294 
26.398798 1.549888 9.228073 
24.980058 1.468693 8.709130 
23.625883 1.366968 8.024244 
22.345969 1.240669 7.192896 
21.139907 1.103141 6.305316 
19.931549 0.962692 5.375419 
18.733747 0.820462 4.450852 
17.508436 0.661725 3.535745 
16.221985 0.513688 2.729125 
14.845590 0.409887 2.161888 
13.340214 0.381074 2.002740 
11.898804 0.451748 2.335153 
10.539336 0.573077 3.009930 
9.260487 0.705292 3.865426 
8.069076 0.837765 4.782777 
6.876138 0.985673 5.733272 
5.681980 1.137727 6.653675 
4.430917 1.275112 7.539582 
3.141476 1.392351 8.309979 
1.774233 1.489322 8.938634 
0.327312 1.557638 9.406231 
-1.161927 1.603105 9.678333 
-2.674189 1.631842 9.804229 
-4.194455 1.646911 9.859051 
-5.712413 1.651957 9.876694 
-7.234916 1.656665 9.873776 
-8.757531 1.664810 9.848105 
-10.263691 1.666451 9.760405 
-11.771840 1.661589 9.552196 
-13.262415 1.653420 9.231593 
-14.737827 1.633020 8.880788 
-16.236186 1.587989 8.605361 
-17.750882 1.540325 8.463263 
-19.258936 1.518627 8.417094 
-20.782822 1.517477 8.395809 
-22.304949 1.518441 8.381973 
-23.823447 1.535671 8.396117 
-25.343885 1.575707 8.462263 
-26.856484 1.623819 8.590273 
-28.359566 1.646402 8.793067 
-29.856085 1.635574 9.066950 
-31.340270 1.621316 9.374500 
-32.831630 1.608530 9.627193 
-34.348780 1.615184 9.757839 
-35.877560 1.632129 9.803585 
-37.389186 1.642146 9.827987 
-38.908165 1.649670 9.844600 
-40.430380 1.655434 9.855989 
-41.905152 1.659316 9.863687 
-43.569250 1.662172 9.869758 
47.627109 2.189457 9.697071 
46.218356 2.194885 9.736427 
44.576301 2.200871 9.780944 
42.982381 2.205096 9.816979 
41.549518 2.205068 9.827144 
40.023905 2.203707 9.821946 
38.496721 2.203669 9.812725 
36.976072 2.204287 9.801185 
35.455603 2.203305 9.785623 
33.934972 2.198132 9.762893 
32.420622 2.186268 9.728753 
30.896136 2.167983 9.680219 
29.373428 2.152409 9.611110 
27.866481 2.127601 9.457698 
26.398798 2.048408 9.108034 
24.980058 1.937614 8.596219 
23.625883 1.797231 7.920641 
22.345969 1.625610 7.100206 
21.139907 1.439673 6.224282 
19.931549 1.247585 5.306819 
18.733747 1.053614 4.394711 
17.508436 0.844719 3.491681 
16.221985 0.653386 2.695487 
14.845590 0.519620 2.135466 
13.340214 0.482771 1.978253 
11.898804 0.571528 2.306312 
10.539336 0.730110 2.972118 
9.260487 0.909867 3.816166 
8.069076 1.092667 4.721399 
6.876138 1.291988 5.659514 
5.681980 1.493641 6.567974 
4.430917 1.679508 7.442207 
3.141476 1.839852 8.202224 
1.774233 1.972581 8.822270 
0.327312 2.067446 9.283475 
-1.161927 2.128203 9.551894 
-2.674189 2.163093 9.676309 
-4.194455 2.179937 9.730704 
-5.712413 2.185210 9.748292 
-7.234916 2.189220 9.745542 
-8.757531 2.195345 9.720357 
-10.263691 2.191729 9.633923 
-11.771840 2.175180 9.428528 
-13.262415 2.148045 9.112492 
-14.737827 2.104401 8.767284 
-16.236186 2.038232 8.496946 
-17.750882 1.974833 8.358637 
-19.258936 1.943278 8.314842 
-20.782822 1.936151 8.294996 
-22.304949 1.933189 8.282105 
-23.823447 1.948228 8.296777 
-25.343885 1.989176 8.362703 
-26.856484 2.046407 8.488517 
-28.359566 2.089770 8.686308 
-29.856085 2.108114 8.953167 
-31.340270 2.123460 9.253588 
-32.831630 2.130610 9.501481 
-34.348780 2.145392 9.630170 
-35.877560 2.164291 9.675445 
-37.389186 2.175257 9.699619 
-38.908165 2.183375 9.716089 
-40.430380 2.189475 9.727397 
-41.905152 2.193506 9.735059 
-43.569250 2.196393 9.741122 
47.627109 2.841078 9.530252 
46.218356 2.846698 9.569559 
44.576301 2.852860 9.614031 
42.982381 2.857049 9.650075 
41.549518 2.856568 9.660355 
40.023905 2.854515 9.655335 
38.496721 2.853776 9.646294 
36.976072 2.853681 9.634936 
35.455603 2.851917 9.619575 
33.934972 2.845836 9.597077 
32.420622 2.832845 9.563225 
30.896136 2.812952 9.515103 
29.373428 2.793401 9.447012 
27.866481 2.757606 9.296413 
26.398798 2.655370 8.952648 
24.980058 2.508541 8.450058 
23.625883 2.321089 7.786530 
22.345969 2.094288 6.980222 
21.139907 1.849411 6.119386 
19.931549 1.594450 5.218020 
18.733747 1.337485 4.322038 
17.508436 1.067519 3.434643 
16.221985 0.823474 2.651944 
14.845590 0.653223 2.101263 
13.340214 0.606590 1.946554 
11.898804 0.717364 2.268977 
10.539336 0.921303 2.923172 
9.260487 1.158943 3.752401 
8.069076 1.403018 4.641947 
6.876138 1.664936 5.564037 
5.681980 1.926978 6.457037 
4.430917 2.171872 7.316159 
3.141476 2.384699 8.062740 
1.774233 2.560964 8.671640 
0.327312 2.688152 9.124570 
-1.161927 2.767527 9.388224 
-2.674189 2.809907 9.510720 
-4.194455 2.828912 9.564562 
-5.712413 2.834463 9.582079 
-7.234916 2.837622 9.579547 
-8.757531 2.841287 9.554992 
-10.263691 2.831271 9.470196 
-11.771840 2.800493 9.268444 
-13.262415 2.750266 8.958320 
-14.737827 2.678322 8.620357 
-16.236186 2.586418 8.356607 
-17.750882 2.503861 8.223203 
-19.258936 2.460304 8.182481 
-20.782822 2.445899 8.164497 
-22.304949 2.438157 8.152830 
-23.823447 2.450530 8.168184 
-25.343885 2.492588 8.233827 
-26.856484 2.560920 8.356799 
-28.359566 2.629585 8.548112 
-29.856085 2.683447 8.805879 
-31.340270 2.734837 9.097072 
-32.831630 2.766258 9.338751 
-34.348780 2.790938 9.464906 
-35.877560 2.812215 9.509572 
-37.389186 2.824337 9.533450 
-38.908165 2.833178 9.549735 
-40.430380 2.839686 9.560939 
-41.905152 2.843898 9.568555 
-43.569250 2.846825 9.574608 
47.627109 3.498808 9.338089 
46.218356 3.504622 9.377340 
44.576301 3.510961 9.421760 
42.982381 3.515114 9.457815 
41.549518 3.514176 9.468229 
40.023905 3.511424 9.463413 
38.496721 3.509978 9.454578 
36.976072 3.509162 9.443430 
35.455603 3.506609 9.428300 
33.934972 3.499611 9.406069 
32.420622 3.485483 9.372550 
30.896136 3.463967 9.324903 
29.373428 3.440401 9.257984 
27.866481 3.393517 9.110625 
26.398798 3.268023 8.773655 
24.980058 3.084819 8.281693 
23.625883 2.849858 7.632044 
22.345969 2.567358 6.842009 
21.139907 2.262989 5.998555 
19.931549 1.944567 5.115729 
18.733747 1.624017 4.238325 
17.508436 1.292408 3.368939 
16.221985 0.995155 2.601785 
14.845590 0.788078 2.061863 
13.340214 0.731570 1.910040 
11.898804 0.864567 2.225970 
10.539336 1.114287 2.866789 
9.260487 1.410353 3.678949 
8.069076 1.716278 4.550425 
6.876138 2.041380 5.454055 
5.681980 2.364376 6.329247 
4.430917 2.668851 7.170962 
3.141476 2.934653 7.902066 
1.774233 3.154862 8.498127 
0.327312 3.314677 8.941524 
-1.161927 3.412843 9.199688 
-2.674189 3.462785 9.319975 
-4.194455 3.483970 9.373180 
-5.712413 3.489801 9.390615 
-7.234916 3.492102 9.388334 
-8.757531 3.493285 9.364504 
-10.263691 3.476808 9.281596 
-11.771840 3.431668 9.084040 
-13.262415 3.358132 8.780726 
-14.737827 3.257623 8.451108 
-16.236186 3.139742 8.194948 
-17.750882 3.037848 8.067193 
-19.258936 2.982177 8.030010 
-20.782822 2.960426 8.014173 
-22.304949 2.947859 8.003916 
-23.823447 2.957540 8.020056 
-25.343885 3.000718 8.085372 
-26.856484 3.080257 8.205069 
-28.359566 3.174460 8.388922 
-29.856085 3.264172 8.636214 
-31.340270 3.351944 8.916778 
-32.831630 3.407865 9.151300 
-34.348780 3.442534 9.274536 
-35.877560 3.466212 9.318500 
-37.389186 3.479500 9.342038 
-38.908165 3.489072 9.358109 
-40.430380 3.495993 9.369192 
-41.905152 3.500387 9.376755 
-43.569250 3.503353 9.382797 
47.627109 4.093927 9.116959 
46.218356 4.099916 9.156144 
44.576301 4.106415 9.200504 
42.982381 4.110536 9.236571 
41.549518 4.109184 9.247139 
40.023905 4.105800 9.242558 
38.496721 4.103714 9.233961 
36.976072 4.102246 9.223056 
35.455603 4.098979 9.208191 
33.934972 4.091152 9.186268 
32.420622 4.075995 9.153131 
30.896136 4.053009 9.106030 
29.373428 4.025812 9.040461 
27.866481 3.968894 8.896830 
26.398798 3.822355 8.567679 
24.980058 3.606239 8.087946 
23.625883 3.328291 7.454271 
22.345969 2.995396 6.682961 
[...]
POINT_DATA 6500
SCALARS sample_scalars float 1
LOOKUP_TABLE my_table
3.647406
2.253367
0.708496
0.296256
0.478217
0.266835
0.448197
0.290973
0.359363
0.331607
0.253249
0.382056
0.174555
0.482490
0.235578
0.575191
0.406681
0.522367
0.499619
0.492007
0.669318
0.483690
0.548365
0.400591
0.305083
0.281784
0.196805
0.314519
0.362676
0.106962
0.476911
0.075944
0.532513
0.120673
0.438609
0.161970
0.381364
0.262588
0.324619
0.341274
0.241978
0.396180
0.234666
0.590418
0.524166
0.768447
0.773163
0.686354
0.605738
0.620472
0.528437
0.709146
0.615909
0.647470
0.482749
0.351295
0.225571
0.388221
0.177146
0.469054
0.153985
0.531725
0.389086
0.459126
3.646686
2.252246
0.705082
0.288086
0.473225
0.257916
0.443254
0.283957
0.354015
0.325490
0.243438
0.373860
0.155413
0.477804
0.226112
0.572310
0.406324
0.522878
0.502932
0.495459
0.674080
0.487762
0.551431
0.402874
0.307067
0.285403
0.198340
0.318672
0.360895
0.106610
0.473862
0.060374
0.529125
0.093376
0.429805
0.134372
0.371729
0.250295
0.315420
0.333663
0.234628
0.403036
0.275098
0.578900
0.505699
0.721938
0.715169
0.656450
0.576274
0.612161
0.522720
0.694833
0.603077
0.631073
0.460835
0.349357
0.260632
0.378501
0.154751
0.461925
0.133165
0.526595
0.382551
0.453928
3.646760
2.252302
0.705032
0.294710
0.477431
0.265830
0.447857
0.290836
0.359534
0.332060
0.254204
0.382792
0.176387
0.480328
0.233184
0.576292
0.403808
0.522922
0.498722
0.492620
0.671108
0.485242
0.549854
0.401572
0.305508
0.282984
0.191837
0.315468
0.361804
0.109956
0.478814
0.085909
0.530907
0.129531
0.437438
0.163954
0.381034
0.261912
0.324067
0.341223
0.243221
0.393692
0.222633
0.540670
0.505730
0.687988
0.635095
0.660825
0.579612
0.629886
0.545209
0.695206
0.607653
0.622370
0.420909
0.381152
0.225684
0.388097
0.176414
0.468510
0.151922
0.531099
0.388244
0.458455
3.646880
2.252596
0.706324
0.294143
0.477205
0.265372
0.447626
0.290585
0.359231
0.331159
0.251343
0.379457
0.168246
0.480483
0.231949
0.574972
0.408181
0.523836
0.504806
0.495799
0.677500
0.489319
0.553783
0.403876
0.307164
0.286060
0.190441
0.319183
0.358303
0.109996
0.474572
0.078372
0.531110
0.114702
0.434003
0.150526
0.376981
0.257743
0.321371
0.339191
0.241444
0.396752
0.236573
0.530697
0.496344
0.659101
0.586026
0.622760
0.583825
0.654529
0.581888
0.717781
0.632012
0.631960
0.425642
0.377528
0.244050
0.383063
0.166472
0.465614
0.144647
0.529470
0.386399
0.457144
3.649006
2.256399
0.719627
0.310410
0.487753
0.283387
0.458187
0.306029
0.370981
0.342065
0.261420
0.382973
0.173416
0.492139
0.248329
0.576338
0.428409
0.528763
0.523121
0.504074
0.692016
0.498232
0.562300
0.408843
0.310813
0.292318
0.188495
0.327832
0.349177
0.116473
0.462700
0.077986
0.539781
0.098421
0.437697
0.146406
0.380228
0.266700
0.330204
0.347913
0.252831
0.408179
0.258490
0.530850
0.495830
0.644118
0.554826
0.583156
0.558962
0.670319
0.622468
0.749339
0.665947
0.650915
0.446244
0.377981
0.271960
0.382517
0.170811
0.469039
0.159321
0.534522
0.394072
0.464141
3.651367
2.260635
0.734263
0.333609
0.503488
0.309439
0.474328
0.328891
0.389098
0.360123
0.281782
0.394966
0.196169
0.507177
0.271200
0.581869
0.447846
0.534912
0.538186
0.510810
0.702984
0.504896
0.568664
0.412595
0.313597
0.296707
0.185721
0.334218
0.343093
0.128687
0.456418
0.100627
0.543024
0.114750
0.448566
0.166879
0.391971
0.286224
0.347469
0.364273
0.272826
0.414329
0.241923
0.520897
0.516625
0.629373
0.539553
0.541052
0.515947
0.647038
0.601405
0.784650
0.703323
0.673849
0.457974
0.400882
0.267119
0.390172
0.192729
0.478561
0.187457
0.544049
0.407356
0.475800
3.654767
2.266723
0.754869
0.379941
0.536674
0.361351
0.509394
0.376820
0.429470
0.402503
0.333315
0.432541
0.261808
0.534729
0.316063
0.602158
0.470926
0.548995
0.549567
0.518223
0.708064
0.508972
0.571458
0.414876
0.315930
0.299247
0.187445
0.339328
0.350725
0.163890
0.471014
0.170871
0.563583
0.197003
0.479448
0.239259
0.428362
0.335764
0.390230
0.405019
0.322646
0.427729
0.190432
0.518027
0.428286
0.543250
0.565566
0.511502
0.478919
0.624410
0.578774
0.757733
0.675025
0.697060
0.472910
0.466953
0.229335
0.422759
0.256196
0.507187
0.251229
0.569027
0.440142
0.504279
3.656925
2.270504
0.767171
0.406862
0.556828
0.390990
0.530818
0.405105
0.454185
0.428310
0.363281
0.455158
0.296598
0.551475
0.341792
0.615709
0.485090
0.559381
0.557233
0.524606
0.711731
0.512444
0.573179
0.416640
0.318109
0.301968
0.192279
0.344248
0.358446
0.186254
0.483251
0.206750
0.578367
0.236179
0.497275
0.274928
0.449750
0.363826
0.415274
0.429476
0.352669
0.441676
0.181842
0.519105
0.371349
0.495277
0.495264
0.506613
0.472618
0.626528
0.583991
0.757359
0.677540
0.679574
0.485728
0.433959
0.225008
0.442285
0.289164
0.524672
0.284980
0.584777
0.460451
0.522267
3.659502
2.274996
0.781509
0.436962
0.580031
0.423758
0.555423
0.436696
0.482296
0.457530
0.396435
0.480967
0.333722
0.570883
0.370363
0.631822
0.501389
0.571982
0.566016
0.532469
0.715565
0.516492
0.574457
0.416838
0.319215
0.305289
0.199691
0.350300
0.368661
0.210750
0.498469
0.243551
0.596069
0.276214
0.517706
0.312330
0.474141
0.394904
0.443484
0.457206
0.386081
0.460543
0.189814
0.531072
0.335244
0.470039
0.447687
0.518794
0.484883
0.641701
0.603188
0.769694
0.695646
0.676068
0.504017
0.406204
0.228726
0.464755
0.324407
0.545008
0.321055
0.603285
0.483910
0.543267
3.662517
2.280226
0.797858
0.445590
0.577258
0.416673
0.551340
0.435719
0.486044
0.466410
0.412236
0.499024
0.365370
0.591288
0.401035
0.642035
0.506340
0.581399
0.574937
0.540852
0.717128
0.513992
0.570066
0.413212
0.315472
0.304861
0.209392
0.357468
0.377976
0.216107
0.502323
0.244775
0.601995
0.304742
0.537114
0.350899
0.501113
0.423045
0.462861
0.475606
0.415748
0.483775
0.212207
0.536927
0.319757
0.463179
0.420165
0.544309
0.512311
0.668533
0.635022
0.793870
0.728194
0.684279
0.530083
0.385992
0.239437
0.489714
0.361285
0.567913
0.358805
0.624340
0.510129
0.566988
3.665704
2.280024
0.779533
0.409681
0.550058
0.378218
0.522855
0.398932
0.453350
0.432550
0.374472
0.469437
0.324515
0.566383
0.366550
0.623606
0.483855
0.565975
0.561307
0.529961
0.710112
0.507749
0.565657
0.409873
0.312283
0.300049
0.202967
0.353015
0.367944
0.189489
0.489718
0.206617
0.583964
0.264289
0.512726
0.314790
0.475252
0.386980
0.429796
0.443100
0.377097
0.510540
0.243967
0.496766
0.321170
0.470125
0.409752
0.527397
0.527122
0.697393
0.678486
0.829733
0.774099
0.702683
0.566479
0.372101
0.255549
0.488326
0.341543
0.556488
0.341675
0.614923
0.497866
0.554438
3.662066
2.274066
0.761572
0.376253
0.525828
0.342259
0.497470
0.364917
0.423710
0.401646
0.339163
0.442696
0.285065
0.543799
0.333849
0.607701
0.463193
0.552696
0.548675
0.520482
0.703256
0.502090
0.561194
0.406803
0.309645
0.295832
0.194856
0.345019
0.360388
0.164546
0.480264
0.169166
0.567761
0.224745
0.490679
0.275793
0.448797
0.353072
0.399310
0.413331
0.340797
0.495577
0.280938
0.465773
0.334632
0.486747
0.413224
0.506753
0.502699
0.684176
0.669502
0.876708
0.831467
0.730258
0.583733
0.363222
0.276063
0.462632
0.303369
0.533331
0.301721
0.593356
0.470733
0.530074
3.658837
2.268810
0.745541
0.345889
0.504894
0.309499
0.475576
0.334378
0.397698
0.374325
0.307054
0.419285
0.247607
0.523746
0.303395
0.594496
0.444483
0.541684
0.537021
0.512456
0.696508
0.496997
0.556645
0.403985
0.307552
0.292210
0.189274
0.338070
0.355514
0.142102
0.474208
0.132942
0.553674
0.186668
0.471246
0.238267
0.425241
0.321910
0.371946
0.386840
0.307584
0.466146
0.320548
0.443380
0.355568
0.510200
0.427422
0.495871
0.487930
0.677668
0.667201
0.911978
0.896094
0.766248
0.598409
0.358830
0.300633
0.439552
0.266733
0.512828
0.262991
0.574363
0.446357
0.508460
3.656024
2.264267
0.731580
0.319444
0.487660
0.281020
0.457652
0.308316
0.376043
0.351402
0.279222
0.399771
0.213164
0.506532
0.275935
0.584159
0.427991
0.533075
0.526429
0.505957
0.689890
0.492493
0.552019
0.401429
0.306013
0.289208
0.186441
0.332243
0.353407
0.123484
0.471636
0.099180
0.541863
0.151103
0.454752
0.203007
0.405084
0.294353
0.348425
0.364330
0.278546
0.440540
0.336595
0.429058
0.381076
0.495033
0.449936
0.493929
0.483080
0.678126
0.671672
0.916139
0.913321
0.809010
0.616278
0.359273
0.329379
0.419467
0.232364
0.495312
0.226128
0.558215
0.425224
0.489972
3.653646
2.260469
0.719896
0.298020
0.474557
0.258282
0.444197
0.287978
0.359550
0.333792
0.257053
0.384732
0.183400
0.492516
0.252522
0.576825
0.414101
0.526993
0.517074
0.501081
0.683487
0.488640
0.547364
0.399165
0.305048
0.286874
0.186446
0.327641
0.354013
0.110573
0.472460
0.071161
0.532523
0.120061
0.441539
0.171342
0.388856
0.271520
0.329591
0.346591
0.255114
0.419284
0.292765
0.421888
0.403250
0.482602
0.479080
0.499816
0.487696
0.685206
0.682338
0.922212
0.925713
0.855964
0.636822
0.365609
0.362254
0.402791
0.201432
0.481124
0.192270
0.545192
0.407878
0.475006
3.651712
2.257435
0.710643
0.282714
0.465900
0.242828
0.435581
0.274562
0.348892
0.322296
0.241998
0.374627
0.160752
0.481987
0.234353
0.572554
0.403141
0.523502
0.509099
0.497888
0.677367
0.485481
0.542719
0.397212
0.304667
0.285240
0.189236
0.324339
0.357210
0.105327
0.476509
0.057327
0.525785
0.097493
0.431869
0.145422
0.377008
0.254608
0.316218
0.334320
0.238841
0.402797
0.251522
0.420380
0.378256
0.473974
0.484474
0.511990
0.500222
0.697519
0.697445
0.928882
0.936519
0.889742
0.659260
0.378593
0.391047
0.389911
0.175648
0.470535
0.163222
0.535502
0.394794
0.463886
3.650195
2.255115
0.703724
0.274160
0.461692
0.235611
0.431835
0.268702
0.344307
0.317272
0.235059
0.369664
0.148060
0.474959
0.222335
0.571316
0.395078
0.522549
0.502389
0.496311
0.671438
0.482952
0.538029
0.392073
0.301296
0.284260
0.194647
0.322288
0.362949
0.108580
0.483726
0.066489
0.521587
0.089617
0.425821
0.128367
0.369777
0.244518
0.308736
0.327863
0.230876
0.391251
0.212685
0.423459
0.355284
0.466638
0.457596
0.528513
0.518094
0.712644
0.711541
0.933661
0.942884
0.880817
0.681990
0.397989
0.357544
0.381128
0.157180
0.463645
0.141464
0.529187
0.386204
0.456718
3.649082
2.253482
0.699098
0.272712
0.461878
0.237031
0.432894
0.270588
0.345809
0.318794
0.236666
0.369893
0.147549
0.471452
0.217231
0.573045
0.389929
0.524063
0.496902
0.496297
0.665659
0.481016
0.528170
0.385076
0.295413
0.280638
0.202412
0.321457
0.371082
0.119407
0.493930
0.091558
0.519882
0.099582
0.423434
0.123558
0.367300
0.241862
0.307368
0.327363
0.231794
0.384837
0.176743
0.430567
0.332686
0.458895
0.430042
0.547990
0.508707
0.666727
0.655797
0.934490
0.942312
0.870935
0.702670
0.422591
0.324774
0.376669
0.148487
0.460521
0.130313
0.526271
0.382274
0.453568
3.648369
2.252531
0.696773
0.278283
0.466320
0.246684
0.438576
0.279836
0.353141
0.326579
0.246411
0.375156
0.159006
0.471462
0.219351
0.577623
0.387745
0.527951
0.492666
0.497807
0.660043
0.471492
0.517622
0.378379
0.290128
0.271731
0.212193
0.321830
0.381357
0.135788
0.506811
0.122770
0.520630
0.122699
0.424678
0.131993
0.369552
0.246683
0.312028
0.332684
0.241254
0.383711
0.145586
0.441588
0.310030
0.451130
0.402925
0.499434
0.451915
0.616837
0.599649
0.910227
0.933986
0.858457
0.719128
0.450495
0.293925
0.376608
0.151003
0.461154
0.132184
0.526737
0.383046
0.454432
3.648072
2.252284
0.696828
0.290373
0.474830
0.263521
0.448617
0.295611
0.365831
0.340059
0.263200
0.385111
0.179872
0.474989
0.228430
0.584887
0.388650
0.534105
0.489816
0.500825
0.650905
0.459785
0.507031
0.372013
0.285473
0.263433
0.212632
0.323419
0.393431
0.155771
0.521931
0.156094
0.523812
0.152640
0.429455
0.151133
0.376348
0.258422
0.322340
0.343436
0.258134
0.387941
0.123646
0.456755
0.289844
0.445383
0.379461
0.450910
0.397015
0.569507
0.543600
0.852811
0.894934
0.841971
0.730285
0.480007
0.266371
0.380843
0.163998
0.465467
0.146406
0.530534
0.388432
0.459237
3.648183
2.252721
0.699189
0.307967
0.487022
0.285981
0.462545
0.316669
0.383125
0.358361
0.285514
0.399225
0.206988
0.481834
0.243461
0.594623
0.392514
0.542352
0.488338
0.505266
0.634961
0.448769
0.496460
0.366022
0.281487
0.255832
0.207342
0.326161
0.407041
0.177934
0.538968
0.190099
0.529291
0.185786
0.437525
0.177206
0.387287
0.275953
0.337574
0.358924
0.280820
0.397350
0.117828
0.475950
0.276941
0.443180
0.363050
0.405048
0.346134
0.526770
0.489660
0.791280
0.825029
0.820726
0.721469
0.461512
0.243161
0.389084
0.184974
0.473237
0.169566
0.537482
0.398098
0.467734
3.648670
2.253789
0.703634
0.329814
0.502374
0.312442
0.479757
0.341666
0.404130
0.380486
0.311839
0.416860
0.237884
0.491628
0.263064
0.606592
0.398964
0.552471
0.488055
0.495528
0.619262
0.438492
0.485930
0.360423
0.278182
0.248978
0.204560
0.315499
0.422017
0.201353
0.557723
0.224218
0.536824
0.220462
0.448534
0.207312
0.401833
0.297940
0.356817
0.378291
0.307698
0.411454
0.131454
0.498441
0.275159
0.445076
0.356480
0.365003
0.303926
0.492424
0.442305
0.727005
0.745167
0.794738
0.675078
0.428191
0.225007
0.400925
0.211229
0.484134
0.198132
0.547298
0.411519
0.479527
3.649515
2.255447
0.709981
0.354824
0.520383
0.341633
0.499677
0.369490
0.428033
0.405538
0.340949
0.437387
0.270959
0.504017
0.286012
0.620536
0.407673
0.559558
0.473144
0.483180
0.603733
0.428927
0.475398
0.355193
0.275538
0.242873
0.204334
0.303969
0.421457
0.200236
0.560701
0.258142
0.546185
0.255783
0.462116
0.239650
0.419424
0.323201
0.379211
0.400732
0.337466
0.429573
0.159755
0.467003
0.285409
0.449344
0.361049
0.335723
0.278607
0.472245
0.409506
0.663423
0.655560
0.764984
0.622288
0.397937
0.212691
0.415901
0.240750
0.497802
0.229761
0.559688
0.428147
0.494209
3.650712
2.257683
0.718124
0.382145
0.525331
0.340397
0.497718
0.368931
0.433529
0.424925
0.371927
0.460217
0.305215
0.518696
0.311364
0.636185
0.383448
0.545868
0.450505
0.472392
0.588364
0.420087
0.464856
0.350330
0.273544
0.237536
0.206599
0.293561
0.421665
0.179891
0.545026
0.246412
0.557188
0.291200
0.477916
0.273141
0.439520
0.350798
0.404019
0.425546
0.369156
0.450922
0.195848
0.425868
0.305241
0.383513
0.377207
0.323808
0.280134
0.468335
0.333757
0.607869
0.560092
0.717489
0.562280
0.371289
0.206889
0.433521
0.272219
0.513886
0.263087
0.574363
0.447468
0.511388
3.652267
2.260499
0.728000
0.351577
0.499133
0.299500
0.471043
0.332283
0.402899
0.393697
0.357353
0.480953
0.340021
0.529549
0.336539
0.626149
0.351742
0.534406
0.428671
0.463236
0.573217
0.412016
0.454337
0.345850
0.272192
0.233008
0.211163
0.284379
0.423915
0.162685
0.530811
0.224152
0.543314
0.326351
0.495599
0.307130
0.461633
0.380016
0.420389
0.427350
0.353841
0.474690
0.235041
0.390502
0.331533
0.324664
0.347296
0.334161
0.311694
0.407204
0.219730
0.569404
0.465814
0.640445
0.496062
0.349101
0.207863
0.453307
0.304803
0.532042
0.297328
0.591049
0.469016
0.530704
3.654159
2.263857
0.707431
0.315817
0.475992
0.260457
0.447632
0.298451
0.375589
0.365697
0.326028
0.457503
0.319290
0.504665
0.300872
0.614195
0.321290
0.525213
0.407854
0.455774
0.558402
0.404779
0.443904
0.339776
0.269563
0.229329
0.217733
0.276532
0.427972
0.149365
0.518165
0.206148
0.526233
0.312713
0.509552
0.341270
0.475125
0.359124
0.391238
0.399589
0.321567
0.475343
0.275032
0.362236
0.346974
0.277646
0.321040
0.366516
0.328705
0.378842
0.142047
0.506849
0.382460
0.567892
0.425910
0.332588
0.215167
0.474843
0.337974
0.551931
0.325080
0.599746
0.473174
0.527825
3.656358
2.258977
0.687377
0.282533
0.456107
0.223685
0.427731
0.268041
0.352024
0.341371
0.298018
0.437045
0.288827
0.482129
0.266559
0.593124
0.292210
0.518269
0.388090
0.449985
0.543910
0.398362
0.433552
0.331590
0.264328
0.226488
0.226023
0.270048
0.433695
0.140691
0.507089
0.193198
0.511213
0.291327
0.489492
0.321912
0.452246
0.329288
0.364911
0.374925
0.292659
0.452235
0.314873
0.341720
0.317732
0.248992
0.322013
0.412426
0.332347
0.391396
0.167491
0.455732
0.323289
0.507119
0.354441
0.322823
0.227739
0.494698
0.323895
0.534053
0.287549
0.580202
0.448240
0.505815
3.653574
2.253161
0.669219
0.252278
0.439660
0.189903
0.411574
0.241884
0.332675
0.321237
0.274009
0.419834
0.261468
0.462069
0.233835
0.573299
0.264565
0.513545
0.369326
0.445813
0.529663
0.392716
0.418983
0.323948
0.259920
0.219817
0.235774
0.264913
0.440999
0.137275
0.497542
0.186090
0.498272
0.273777
0.471730
0.294569
0.432031
0.302311
0.341804
0.353749
0.267866
0.433132
0.343913
0.329325
0.304253
0.244169
0.348930
0.426501
0.371574
0.438137
0.261708
0.448662
0.236083
0.465861
0.284753
0.320210
0.244245
0.474526
0.292838
0.515548
0.251218
0.563069
0.425980
0.486469
3.650192
2.248013
0.653018
0.225885
0.426827
0.160404
0.399372
0.221052
0.318010
0.305822
0.254793
0.406095
0.237984
0.444669
0.203161
0.554948
0.238617
0.510982
0.351629
0.443211
0.515664
0.387822
0.403982
0.316854
0.256338
0.210710
0.246701
0.261127
0.449709
0.139189
0.489527
0.185134
0.487459
0.260591
0.456411
0.270169
0.414719
0.278767
0.322370
0.336479
0.248071
0.418213
0.321444
0.324947
0.306197
0.262799
0.394795
0.463493
0.433628
0.503275
0.365447
0.482151
0.195672
0.449656
0.220894
0.324265
0.263379
0.456895
0.264145
0.499609
0.216420
0.548460
0.406679
0.469980
3.647207
2.243526
0.638861
0.204387
0.417694
0.137175
0.391211
0.206616
0.308332
0.295485
0.241069
0.395935
0.219182
0.430104
0.175230
0.538207
0.214808
0.510468
0.335157
0.442121
0.501971
0.379551
0.389081
0.310323
0.253580
0.202567
0.258510
0.258685
0.459574
0.145829
0.483050
0.189928
0.478803
0.252055
0.443636
0.249236
0.400485
0.259253
0.307008
0.323437
0.234075
0.407520
0.305197
0.327931
0.321011
0.297863
0.450437
0.514500
0.502714
0.569000
0.455757
0.539147
0.240572
0.457907
0.168531
0.333661
0.284027
0.441920
0.238359
0.486339
0.183625
0.536445
0.390585
0.456486
3.644619
2.239695
0.626829
0.188838
0.412198
0.122723
0.386996
0.199274
0.303659
0.290288
0.233213
0.389293
0.205715
0.418484
0.151003
0.523246
0.193753
0.511835
0.320128
0.442459
0.488688
0.367935
0.374340
0.304386
0.251637
0.195477
0.270916
0.257560
0.470296
0.156128
0.478109
0.199444
0.472286
0.248084
0.433417
0.232200
0.389383
0.244266
0.295948
0.314748
0.226338
0.400911
0.295098
0.337260
0.345511
0.339666
0.506010
0.565985
0.562147
0.618180
0.517878
0.599434
0.321720
0.482587
0.133886
0.346552
0.305339
0.429601
0.216041
0.475749
0.153478
0.527014
0.377844
0.446036
3.642398
2.236470
0.616828
0.180101
0.410176
0.119189
0.386528
0.199177
0.303813
0.290098
0.231353
0.386103
0.198220
0.409788
0.131794
0.509977
0.175843
0.514924
0.306496
0.444091
0.475749
0.357403
0.359825
0.299068
0.250484
0.189510
0.276620
0.257645
0.481772
0.169153
0.474595
0.212748
0.467804
0.248645
0.425745
0.219638
0.381459
0.234252
0.289321
0.310429
0.225014
0.398246
0.291141
0.351736
0.376371
0.379765
0.552580
0.554416
0.559092
0.624330
0.541606
0.618915
0.304366
0.512256
0.118758
0.360970
0.326749
0.419968
0.197959
0.467836
0.127146
0.520124
0.368538
0.438616
3.640521
2.233809
0.608778
0.178590
0.411410
0.126610
0.389534
0.205800
0.308438
0.294574
0.235234
0.386244
0.197000
0.403972
0.119355
0.498322
0.161563
0.519574
0.294222
0.446882
0.462305
0.347959
0.345524
0.294357
0.250077
0.184686
0.281949
0.258822
0.493901
0.184101
0.472400
0.228926
0.465252
0.253500
0.420603
0.212075
0.376726
0.229504
0.287127
0.310366
0.229799
0.399328
0.293116
0.370096
0.410480
0.411552
0.582459
0.479443
0.445740
0.490123
0.382682
0.549416
0.241240
0.515004
0.115036
0.375104
0.347960
0.413040
0.185009
0.462584
0.106773
0.515725
0.362707
0.434190
3.638974
2.231685
0.602626
0.183900
0.415597
0.142475
0.395638
0.217986
0.316963
0.303131
0.244140
0.389463
0.201713
0.400951
0.115197
0.488274
0.151485
0.525600
0.283339
0.450698
0.441806
0.339602
0.331419
0.290236
0.250365
0.181010
0.288572
0.260976
0.506523
0.200269
0.471433
0.247079
0.464511
0.262096
0.417915
0.209694
0.375089
0.229953
0.289132
0.314237
0.239867
0.403828
0.300425
0.391123
0.445212
0.429498
0.589716
0.376428
0.300957
0.375113
0.182524
0.480181
0.160266
0.519699
0.111026
0.387544
0.355034
0.408750
0.177900
0.459919
0.095390
0.513723
0.360288
0.432648
3.637752
2.230083
0.598338
0.194818
0.422321
0.163476
0.404332
0.234232
0.328627
0.314958
0.256981
0.395338
0.211337
0.400566
0.119397
0.479910
0.146128
0.532764
0.273983
0.455393
0.421701
0.332353
0.317538
0.286700
0.251297
0.178479
0.296288
0.263990
0.519399
0.217027
0.471606
0.266331
0.465430
0.273575
0.417502
0.212118
0.376288
0.235056