# vtk DataFile Version 2.0
Comment goes here
ASCII
DATASET UNSTRUCTURED_GRID
POINTS 6500 float
47.627109 1.058496 10.143376 
46.213984 1.063445 10.157521 
44.567649 1.069192 10.174531 
42.971319 1.074497 10.192558 
41.533155 1.077759 10.207833 
40.003878 1.080648 10.221311 
38.472949 1.084288 10.231627 
36.948503 1.087799 10.236526 
35.424209 1.088745 10.233655 
33.899723 1.084314 10.219836 
32.381688 1.071700 10.187540 
30.854114 1.050539 10.119564 
29.329112 1.036835 10.020882 
27.822029 1.029718 9.842720 
26.352121 0.991766 9.465730 
24.928154 0.944042 8.945884 
23.571771 0.884883 8.255540 
22.291626 0.808899 7.408866 
21.078500 0.723976 6.509188 
19.864669 0.638697 5.573741 
18.661261 0.551724 4.640084 
17.436918 0.451529 3.711439 
16.150888 0.356286 2.879083 
14.782174 0.287046 2.272132 
13.282779 0.252218 2.047699 
11.837927 0.251906 2.326094 
10.524281 0.335635 3.096995 
9.311617 0.459649 4.073742 
8.107711 0.555186 5.007442 
6.899271 0.645641 5.925449 
5.685700 0.741598 6.844023 
4.430849 0.825388 7.732692 
3.147207 0.898498 8.542639 
1.794429 0.958871 9.212557 
0.336480 0.994282 9.660006 
-1.157613 1.017679 9.929742 
-2.673640 1.037672 10.062164 
-4.197758 1.051758 10.110222 
-5.719494 1.058810 10.128632 
-7.245692 1.066713 10.141374 
-8.772303 1.077871 10.137244 
-10.282849 1.083338 10.060765 
-11.795121 1.089280 9.853228 
-13.288095 1.106735 9.528492 
-14.760683 1.125939 9.143422 
-16.242110 1.118161 8.762448 
-17.750620 1.103907 8.538517 
-19.259987 1.105849 8.483817 
-20.787633 1.115250 8.472201 
-22.313302 1.117518 8.435361 
-23.835582 1.130173 8.412702 
-25.360916 1.162405 8.447473 
-26.876598 1.187151 8.563408 
-28.374545 1.170128 8.813951 
-29.853224 1.117671 9.203149 
-31.315634 1.067253 9.625053 
-32.804781 1.028501 9.900200 
-34.323727 1.027274 10.050655 
-35.854782 1.046024 10.127975 
-37.370209 1.055330 10.149108 
-38.893167 1.061801 10.159252 
-40.419104 1.066697 10.165699 
-41.897461 1.069858 10.168456 
-43.565159 1.072203 10.169386 
47.627109 1.653558 10.036353 
46.213984 1.658670 10.050469 
44.567649 1.664601 10.067446 
42.971319 1.670051 10.085447 
41.533155 1.673324 10.100720 
40.003878 1.676102 10.114217 
38.472949 1.679532 10.124571 
36.948503 1.682689 10.129534 
35.424209 1.683046 10.126769 
33.899723 1.677684 10.113117 
32.381688 1.663632 10.081080 
30.854114 1.640058 10.013538 
29.329112 1.621698 9.915693 
27.822029 1.604144 9.739408 
26.352121 1.545047 9.366221 
24.928154 1.464070 8.852356 
23.571771 1.361545 8.169811 
22.291626 1.234923 7.332245 
21.078500 1.095609 6.442349 
19.864669 0.952375 5.517326 
18.661261 0.807667 4.594052 
17.436918 0.652674 3.675262 
16.150888 0.510504 2.851346 
14.782174 0.408773 2.250239 
13.282779 0.365592 2.027309 
11.837927 0.387914 2.301633 
10.524281 0.512973 3.065100 
9.311617 0.686546 4.032935 
8.107711 0.837979 4.956581 
6.899271 0.985843 5.864263 
5.685700 1.137400 6.772838 
4.430849 1.275234 7.651786 
3.147207 1.396724 8.453032 
1.794429 1.497112 9.115753 
0.336480 1.561743 9.557947 
-1.157613 1.601453 9.824749 
-2.673640 1.628038 9.955985 
-4.197758 1.644253 10.003661 
-5.719494 1.651909 10.021962 
-7.245692 1.659415 10.034776 
-8.772303 1.668447 10.031027 
-10.282849 1.667739 9.955659 
-11.795121 1.660266 9.750535 
-13.288095 1.657283 9.429476 
-14.760683 1.652898 9.048647 
-16.242110 1.623868 8.671496 
-17.750620 1.594427 8.450296 
-19.259987 1.587314 8.397225 
-20.787633 1.590670 8.386696 
-22.313302 1.587968 8.350750 
-23.835582 1.596913 8.328758 
-25.360916 1.628996 8.363556 
-26.876598 1.662050 8.477996 
-28.374545 1.665992 8.724769 
-29.853224 1.644454 9.108406 
-31.315634 1.626035 9.524555 
-32.804781 1.609048 9.795787 
-34.323727 1.617303 9.944538 
-35.854782 1.638897 10.021346 
-37.370209 1.649290 10.042284 
-38.893167 1.656343 10.052323 
-40.419104 1.661522 10.058719 
-41.897461 1.664754 10.061463 
-43.565159 1.667054 10.062401 
47.627109 2.188663 9.907504 
46.213984 2.193921 9.921586 
44.567649 2.200017 9.938522 
42.971319 2.205599 9.956492 
41.533155 2.208882 9.971763 
40.003878 2.211560 9.985284 
38.472949 2.214800 9.995683 
36.948503 2.217639 10.000723 
35.424209 2.217466 9.998086 
33.899723 2.211268 9.984635 
32.381688 2.195922 9.952910 
30.854114 2.170178 9.885890 
29.329112 2.147631 9.789053 
27.822029 2.120691 9.615029 
26.352121 2.042581 9.246420 
24.928154 1.931701 8.739755 
23.571771 1.790180 8.066600 
22.291626 1.618021 7.239999 
21.078500 1.429796 6.361880 
19.864669 1.234447 5.449406 
18.661261 1.037821 4.538633 
17.436918 0.833553 3.631708 
16.150888 0.649183 2.817954 
14.782174 0.518235 2.223881 
13.282779 0.467542 2.002760 
11.837927 0.510218 2.272183 
10.524281 0.672444 3.026701 
9.311617 0.890581 3.983805 
8.107711 1.092279 4.895348 
6.899271 1.291767 5.790600 
5.685700 1.493321 6.687135 
4.430849 1.679754 7.554381 
3.147207 1.844748 8.345152 
1.794429 1.981121 8.999208 
0.336480 2.072027 9.435075 
-1.157613 2.126407 9.698345 
-2.673640 2.158919 9.828154 
-4.197758 2.177048 9.875368 
-5.719494 2.185249 9.893539 
-7.245692 2.192398 9.906439 
-8.772303 2.199518 9.903151 
-10.282849 2.193258 9.829119 
-11.795121 2.173720 9.626900 
-13.288095 2.152358 9.310266 
-14.760683 2.126761 8.934546 
-16.242110 2.078621 8.561996 
-17.750620 2.035524 8.344084 
-19.259987 2.020267 8.292974 
-20.787633 2.018187 8.283754 
-22.313302 2.011017 8.248884 
-23.835582 2.016625 8.227696 
-25.360916 2.048575 8.262525 
-26.876598 2.089098 8.375167 
-28.374545 2.111894 8.617400 
-29.853224 2.118158 8.994342 
-31.315634 2.128515 9.403563 
-32.804781 2.131100 9.670082 
-34.323727 2.147882 9.816779 
-35.854782 2.172032 9.892972 
-37.370209 2.183403 9.913674 
-38.893167 2.190979 9.923587 
-40.419104 2.196414 9.929922 
-41.897461 2.199709 9.932651 
-43.565159 2.201969 9.933599 
47.627109 2.840171 9.740714 
46.213984 2.845606 9.754750 
44.567649 2.851903 9.771636 
42.971319 2.857644 9.789564 
41.533155 2.860940 9.804832 
40.003878 2.863496 9.818385 
38.472949 2.866506 9.828843 
36.948503 2.868957 9.833982 
35.424209 2.868139 9.831510 
33.899723 2.860923 9.818319 
32.381688 2.844001 9.786998 
30.854114 2.815615 9.720654 
29.329112 2.787972 9.625122 
27.822029 2.749604 9.454023 
26.352121 2.648344 9.091341 
24.928154 2.501056 8.593997 
23.571771 2.312056 7.932997 
22.291626 2.084455 7.120589 
21.078500 1.836680 6.257716 
19.864669 1.577879 5.361485 
18.661261 1.318042 4.466895 
17.436918 1.053778 3.575329 
16.150888 0.818029 2.774728 
14.782174 0.651509 2.189762 
13.282779 0.591669 1.970983 
11.837927 0.659127 2.234062 
10.524281 0.866604 2.976995 
9.311617 1.139000 3.920208 
8.107711 1.401896 4.816084 
6.899271 1.664239 5.695245 
5.685700 1.926667 6.576196 
4.430849 2.172270 7.428294 
3.147207 2.390233 8.205505 
1.794429 2.570417 8.848345 
0.336480 2.693314 9.276022 
-1.157613 2.765555 9.534719 
-2.673640 2.805284 9.662681 
-4.197758 2.825743 9.709298 
-5.719494 2.834606 9.727299 
-7.245692 2.841322 9.740310 
-8.772303 2.846113 9.737618 
-10.282849 2.833092 9.665318 
-11.795121 2.798867 9.466859 
-13.288095 2.755127 9.155953 
-14.760683 2.703705 8.786844 
-16.242110 2.632296 8.420251 
-17.750620 2.572573 8.206596 
-19.259987 2.547401 8.158024 
-20.787633 2.538703 8.150499 
-22.313302 2.526092 8.117021 
-23.835582 2.527638 8.096873 
-25.360916 2.559424 8.131745 
-26.876598 2.609043 8.242058 
-28.374545 2.654794 8.478414 
-29.853224 2.694909 8.846691 
-31.315634 2.740300 9.246942 
-32.804781 2.766715 9.507361 
-34.323727 2.793878 9.651400 
-35.854782 2.821142 9.726796 
-37.370209 2.833702 9.747193 
-38.893167 2.841916 9.756943 
-40.419104 2.847662 9.763199 
-41.897461 2.851033 9.765908 
-43.565159 2.853244 9.766868 
47.627109 3.497785 9.548586 
46.213984 3.503399 9.562569 
44.567649 3.509900 9.579395 
42.971319 3.515802 9.597277 
41.533155 3.519110 9.612541 
40.003878 3.521543 9.626129 
38.472949 3.524321 9.636656 
36.948503 3.526381 9.641909 
35.424209 3.524911 9.639627 
33.899723 3.516667 9.626737 
32.381688 3.498155 9.595880 
30.854114 3.467103 9.530315 
29.329112 3.434314 9.436287 
27.822029 3.384412 9.268557 
26.352121 3.259786 8.912702 
24.928154 3.075748 8.426095 
23.571771 2.838823 7.779096 
22.291626 2.555261 6.983038 
21.078500 2.247377 6.137726 
19.864669 1.924530 5.260207 
18.661261 1.600889 4.384258 
17.436918 1.276067 3.510385 
16.150888 0.988458 2.724936 
14.782174 0.786032 2.150460 
13.282779 0.716960 1.934378 
11.837927 0.809432 2.190148 
10.524281 1.062584 2.919737 
9.311617 1.389747 3.846950 
8.107711 1.714416 4.724778 
6.899271 2.040202 5.585403 
5.685700 2.364074 6.448403 
4.430849 2.669402 7.283052 
3.147207 2.940830 8.044642 
1.794429 3.165237 8.674562 
0.336480 3.320425 9.092805 
-1.157613 3.410694 9.346235 
-2.673640 3.457708 9.472068 
-4.197758 3.480519 9.517999 
-5.719494 3.490051 9.535805 
-7.245692 3.496328 9.548943 
-8.772303 3.498769 9.546938 
-10.282849 3.478925 9.476631 
-11.795121 3.429874 9.282504 
-13.288095 3.363547 8.978197 
-14.760683 3.286056 8.616704 
-16.242110 3.191162 8.256973 
-17.750620 3.114656 8.048221 
-19.259987 3.079476 8.002573 
-20.787633 3.064098 7.997000 
-22.313302 3.045995 7.965126 
-23.835582 3.043441 7.946176 
-25.360916 3.075062 7.981096 
-26.876598 3.133862 8.088727 
-28.374545 3.202783 8.318314 
-29.853224 3.277065 8.676608 
-31.315634 3.357819 9.066528 
-32.804781 3.408287 9.319919 
-34.323727 3.445930 9.460897 
-35.854782 3.476336 9.535375 
-37.370209 3.490098 9.555421 
-38.893167 3.498955 9.564983 
-40.419104 3.505014 9.571147 
-41.897461 3.508462 9.573833 
-43.565159 3.510625 9.574808 
47.627109 4.092799 9.327494 
46.213984 4.098575 9.341417 
44.567649 4.105259 9.358175 
42.971319 4.111308 9.376002 
41.533155 4.114627 9.391262 
40.003878 4.116949 9.404892 
38.472949 4.119516 9.415496 
36.948503 4.121223 9.420881 
35.424209 4.119163 9.418818 
33.899723 4.109989 9.406274 
32.381688 4.090038 9.375951 
30.854114 4.056573 9.311283 
29.329112 4.019130 9.218984 
27.822029 3.958791 9.055133 
26.352121 3.813022 8.707134 
24.928154 3.595734 8.232882 
23.571771 3.315446 7.601995 
[...]
POINT_DATA 6500
SCALARS sample_scalars float 1
LOOKUP_TABLE my_table
3.671747
2.285806
0.802192
0.420747
0.554648
0.415382
0.580819
0.449821
0.529017
0.469925
0.443097
0.452950
0.329816
0.554602
0.378403
0.657734
0.558940
0.620869
0.642757
0.622447
0.805839
0.633827
0.658498
0.506954
0.273761
0.294637
0.170733
0.411411
0.317517
0.193487
0.416502
0.153333
0.517136
0.206556
0.500488
0.253511
0.450735
0.363160
0.422804
0.434272
0.385085
0.488645
0.374617
0.728453
0.690518
0.835482
0.750845
0.675328
0.614323
0.610856
0.496614
0.653845
0.532371
0.600122
0.521240
0.443705
0.319267
0.475318
0.336826
0.577061
0.348549
0.609245
0.506302
0.552834
3.670623
2.284115
0.797740
0.413427
0.549361
0.408604
0.576328
0.444499
0.524695
0.464691
0.436271
0.444375
0.317455
0.548491
0.370385
0.654460
0.556885
0.620520
0.643644
0.624104
0.807951
0.635856
0.660039
0.508342
0.275178
0.294421
0.169916
0.412496
0.316528
0.192441
0.413549
0.144838
0.512468
0.191128
0.491778
0.234211
0.440749
0.352197
0.414190
0.426955
0.379002
0.491156
0.393645
0.725739
0.670814
0.787112
0.726498
0.637125
0.576229
0.594448
0.480261
0.632000
0.511997
0.582292
0.499624
0.441568
0.336977
0.465715
0.323576
0.570140
0.337926
0.603668
0.499947
0.547289
3.670839
2.284373
0.798187
0.419648
0.553873
0.414481
0.580321
0.449430
0.528944
0.470196
0.443921
0.454355
0.332587
0.552552
0.377342
0.659925
0.556076
0.622267
0.640611
0.623073
0.804882
0.634081
0.658118
0.507238
0.274066
0.293858
0.173454
0.411467
0.321890
0.197505
0.422124
0.161502
0.524010
0.214411
0.499415
0.256446
0.451156
0.363273
0.422687
0.434503
0.386546
0.483792
0.355355
0.690865
0.664314
0.746381
0.638502
0.624780
0.559904
0.594754
0.482454
0.616654
0.502495
0.567598
0.461273
0.469602
0.306380
0.475277
0.336625
0.576599
0.347535
0.608629
0.505588
0.552237
3.670917
2.284596
0.799151
0.420201
0.554576
0.415769
0.581530
0.451329
0.530657
0.471815
0.444660
0.453541
0.330585
0.552863
0.377244
0.659874
0.558794
0.623820
0.644201
0.625642
0.808282
0.636545
0.660276
0.508789
0.275553
0.294475
0.173694
0.413780
0.322592
0.200198
0.420288
0.161292
0.521768
0.211075
0.497494
0.250637
0.448844
0.361536
0.421804
0.434391
0.387597
0.485816
0.358514
0.677630
0.652609
0.713826
0.587242
0.613639
0.555398
0.612843
0.512440
0.634106
0.524174
0.575693
0.466071
0.470928
0.314704
0.472593
0.334312
0.575779
0.346798
0.608493
0.505650
0.552450
3.673750
2.289353
0.813337
0.437248
0.568312
0.434733
0.595789
0.470040
0.546612
0.488767
0.460200
0.464977
0.342771
0.566711
0.392535
0.664811
0.575685
0.630896
0.658781
0.633721
0.819011
0.643544
0.666662
0.512877
0.279415
0.297714
0.173992
0.421864
0.321742
0.211790
0.413202
0.172366
0.516240
0.219776
0.506035
0.258894
0.457312
0.374665
0.434556
0.448003
0.403673
0.500172
0.374489
0.675339
0.650792
0.695709
0.553659
0.615660
0.565519
0.641679
0.553878
0.663257
0.558302
0.593448
0.486789
0.480425
0.338742
0.479309
0.348722
0.585578
0.364111
0.619057
0.518675
0.564602
3.677419
2.295391
0.830691
0.462547
0.588706
0.461914
0.616410
0.496293
0.569377
0.513703
0.485404
0.487587
0.370072
0.586930
0.416472
0.676090
0.594909
0.641473
0.672806
0.642752
0.827943
0.649996
0.671677
0.516367
0.282950
0.300917
0.178417
0.430689
0.328272
0.230318
0.415270
0.198796
0.521190
0.248855
0.523236
0.287043
0.476782
0.399653
0.457109
0.470749
0.429176
0.514058
0.370308
0.667225
0.648089
0.696679
0.529000
0.578369
0.578388
0.680192
0.601801
0.694567
0.594528
0.613510
0.498847
0.509781
0.342369
0.496378
0.376716
0.603256
0.392304
0.636226
0.539149
0.583507
3.683449
2.305127
0.857540
0.511150
0.628438
0.512650
0.655887
0.544960
0.612591
0.561794
0.536812
0.538635
0.433182
0.624792
0.463654
0.705497
0.622840
0.663737
0.688291
0.656880
0.833593
0.651948
0.670964
0.517422
0.287052
0.304449
0.194423
0.436623
0.355370
0.269151
0.444645
0.261544
0.555748
0.322086
0.562387
0.357822
0.523857
0.454511
0.505664
0.518612
0.481828
0.541563
0.360008
0.670715
0.565477
0.617086
0.536773
0.530072
0.524443
0.646672
0.580915
0.736298
0.638278
0.645680
0.513307
0.507723
0.333713
0.540161
0.437069
0.641984
0.448646
0.672033
0.580688
0.621912
3.686755
2.310479
0.872064
0.538350
0.651264
0.541040
0.678755
0.571330
0.634539
0.582156
0.552711
0.552686
0.456527
0.645801
0.489671
0.719170
0.625039
0.668275
0.685494
0.649190
0.823242
0.643749
0.664797
0.513124
0.285695
0.306384
0.191754
0.424721
0.339741
0.270901
0.464283
0.296191
0.579022
0.360832
0.583919
0.394107
0.549930
0.484473
0.532831
0.545808
0.512252
0.560428
0.363338
0.672090
0.513489
0.566588
0.548730
0.514760
0.508344
0.642338
0.579528
0.737541
0.641724
0.663316
0.525672
0.476667
0.337955
0.564635
0.469085
0.663916
0.479164
0.692670
0.604401
0.644101
3.684819
2.306791
0.860134
0.516233
0.627820
0.505726
0.647096
0.532107
0.599424
0.544170
0.513993
0.516340
0.413670
0.616906
0.464257
0.697466
0.599614
0.650474
0.668696
0.636959
0.813038
0.636259
0.658505
0.509085
0.281156
0.306909
0.182716
0.414094
0.328285
0.242514
0.446468
0.264432
0.560545
0.318005
0.568744
0.371299
0.528593
0.462879
0.513927
0.523659
0.483971
0.584173
0.377698
0.642409
0.481371
0.537706
0.503418
0.516368
0.509801
0.651293
0.592834
0.749633
0.661814
0.660441
0.543708
0.452694
0.348933
0.551668
0.430676
0.641664
0.453741
0.677857
0.589147
0.630925
3.679797
2.298641
0.837642
0.480167
0.598235
0.468195
0.617960
0.496019
0.567673
0.509580
0.478757
0.483586
0.373823
0.588955
0.430221
0.678947
0.576322
0.635419
0.653105
0.626651
0.803064
0.629553
0.652132
0.505339
0.277220
0.303278
0.175924
0.404899
0.321628
0.216890
0.433131
0.224988
0.542899
0.274338
0.541781
0.328495
0.497423
0.425352
0.479642
0.489416
0.445958
0.558162
0.402034
0.591117
0.468024
0.526717
0.470552
0.531876
0.526090
0.671641
0.618621
0.773055
0.695684
0.669435
0.569663
0.437016
0.365553
0.521756
0.390570
0.614636
0.413839
0.651462
0.558324
0.602086
3.675422
2.291529
0.817587
0.447650
0.572292
0.434404
0.592629
0.463946
0.540003
0.479249
0.447934
0.455270
0.338118
0.564319
0.399493
0.663899
0.555581
0.623350
0.638943
0.618421
0.793427
0.623714
0.645739
0.501928
0.273943
0.299990
0.171610
0.397299
0.319974
0.195174
0.424569
0.188041
0.529749
0.233669
0.518023
0.288375
0.469964
0.391335
0.449014
0.458990
0.412052
0.522178
0.433757
0.551909
0.469759
0.529789
0.453024
0.558823
0.554985
0.702364
0.655666
0.806085
0.740578
0.687951
0.603085
0.428639
0.386643
0.495570
0.353880
0.591147
0.377194
0.628461
0.531060
0.576748
3.671661
2.285408
0.799989
0.419256
0.550307
0.405010
0.571404
0.436504
0.516842
0.453774
0.422225
0.432025
0.307690
0.543246
0.372646
0.652451
0.537497
0.614342
0.626180
0.612265
0.784072
0.618711
0.639290
0.498832
0.271320
0.297029
0.169918
0.391297
0.323335
0.178579
0.421055
0.155089
0.521388
0.197525
0.497758
0.251926
0.446705
0.361564
0.422616
0.432962
0.383085
0.491197
0.388013
0.523959
0.482544
0.543370
0.448692
0.594946
0.594282
0.742464
0.702755
0.847308
0.793913
0.714137
0.613322
0.426558
0.411551
0.473487
0.321471
0.571458
0.344555
0.609072
0.507730
0.555209
3.668487
2.280238
0.784868
0.395635
0.532585
0.380761
0.554568
0.414353
0.498601
0.433763
0.402352
0.414475
0.283938
0.525977
0.350343
0.644691
0.522165
0.608431
0.614785
0.608164
0.774944
0.614509
0.630150
0.494906
0.269339
0.294381
0.170880
0.386882
0.331479
0.168398
0.422687
0.128890
0.518003
0.168483
0.481273
0.220679
0.428149
0.336926
0.401073
0.411951
0.359997
0.465728
0.338304
0.506333
0.502694
0.564771
0.455232
0.600504
0.615204
0.772171
0.749692
0.894547
0.852498
0.746886
0.629110
0.430443
0.428776
0.455887
0.294462
0.555813
0.316879
0.593501
0.488715
0.537762
3.665897
2.276017
0.772343
0.377590
0.519490
0.362578
0.542449
0.398266
0.485740
0.419882
0.389073
0.403229
0.268443
0.512830
0.333398
0.640680
0.509791
0.605649
0.604824
0.606120
0.766061
0.601450
0.616694
0.486513
0.268005
0.292055
0.174385
0.384075
0.343940
0.165657
0.429291
0.113893
0.519580
0.150397
0.468897
0.196912
0.414832
0.318491
0.385103
0.396658
0.343843
0.446351
0.294185
0.497928
0.467914
0.575491
0.470115
0.590678
0.600997
0.763289
0.743253
0.944837
0.912667
0.785170
0.648428
0.440630
0.394068
0.443176
0.274294
0.544488
0.295437
0.581991
0.474460
0.524748
3.663904
2.272770
0.762605
0.365939
0.511372
0.351397
0.535361
0.388983
0.478677
0.412718
0.383017
0.398736
0.262519
0.504139
0.322640
0.640422
0.500653
0.606001
0.596444
0.606148
0.748588
0.586668
0.603128
0.478452
0.266934
0.290077
0.180201
0.376720
0.360091
0.170583
0.440432
0.114272
0.525884
0.147028
0.460939
0.183359
0.407206
0.307320
0.375381
0.387721
0.335559
0.433584
0.257266
0.497356
0.441853
0.565221
0.491151
0.585393
0.591647
0.757420
0.739320
0.970914
0.964211
0.827079
0.670436
0.457601
0.361033
0.435707
0.262467
0.537730
0.281627
0.574777
0.465393
0.516495
3.662510
2.270505
0.755773
0.361206
0.508398
0.347782
0.533429
0.386887
0.477576
0.412503
0.384376
0.401062
0.266551
0.500083
0.318593
0.643819
0.494933
0.609412
0.589752
0.605524
0.727265
0.572789
0.589523
0.470778
0.259098
0.288467
0.188017
0.357033
0.378455
0.182367
0.455562
0.129485
0.536540
0.158868
0.457546
0.181979
0.405462
0.304056
0.372276
0.385462
0.335568
0.427646
0.229464
0.503138
0.422555
0.558487
0.516478
0.583391
0.586293
0.753849
0.737092
0.966380
0.966085
0.869613
0.694098
0.480853
0.329899
0.433638
0.259927
0.535628
0.276447
0.571954
0.461740
0.513162
3.661667
2.269142
0.751667
0.363199
0.510317
0.351454
0.536364
0.391610
0.482085
0.418798
0.392615
0.409691
0.279576
0.500437
0.321065
0.650629
0.492431
0.615655
0.584598
0.587386
0.706235
0.559904
0.575925
0.463530
0.251942
0.287188
0.197518
0.338717
0.371577
0.199457
0.474221
0.154696
0.551191
0.182390
0.458537
0.192426
0.409342
0.308481
0.375552
0.389596
0.343390
0.428260
0.212459
0.514241
0.407747
0.552350
0.544549
0.583156
0.583440
0.751057
0.734765
0.958895
0.963264
0.907905
0.717671
0.509212
0.301604
0.436770
0.266370
0.537948
0.279812
0.573310
0.463284
0.514533
3.661340
2.268627
0.750158
0.371463
0.516814
0.361806
0.543822
0.402548
0.491745
0.430969
0.406951
0.423913
0.299999
0.504941
0.329573
0.660578
0.492974
0.624493
0.564331
0.571360
0.685451
0.548017
0.562303
0.456698
0.245488
0.286221
0.200635
0.321888
0.369095
0.220340
0.495875
0.185455
0.569379
0.213290
0.463663
0.212489
0.418421
0.319910
0.384735
0.399609
0.358139
0.435042
0.207855
0.530092
0.395957
0.544509
0.557613
0.583593
0.581777
0.747748
0.730804
0.946693
0.953548
0.892981
0.738780
0.534020
0.277526
0.444761
0.280742
0.544406
0.291003
0.578601
0.469710
0.520332
3.661513
2.268930
0.751169
0.385332
0.527522
0.378000
0.555416
0.418934
0.506025
0.448265
0.426478
0.442912
0.326066
0.513306
0.343413
0.673365
0.486245
0.612844
0.535195
0.557546
0.664894
0.537143
0.548640
0.450280
0.239762
0.285560
0.195740
0.306696
0.370994
0.186085
0.519944
0.219064
0.577218
0.248406
0.472615
0.239355
0.432141
0.337336
0.399166
0.414821
0.378700
0.447516
0.216198
0.550479
0.386755
0.534650
0.522656
0.584401
0.580933
0.743854
0.725196
0.928956
0.935517
0.875385
0.755313
0.498533
0.259190
0.457140
0.301566
0.554672
0.308848
0.587554
0.480617
0.530228
3.662186
2.270053
0.754696
0.404076
0.542071
0.399154
0.570768
0.430194
0.508266
0.447653
0.433097
0.465878
0.356237
0.525257
0.361816
0.683992
0.447099
0.596284
0.507032
0.546065
0.644629
0.527341
0.532093
0.442684
0.234811
0.285224
0.193129
0.293356
0.377034
0.153420
0.519316
0.254051
0.584360
0.285793
0.485056
0.270659
0.449889
0.359671
0.418123
0.434504
0.403958
0.465170
0.236490
0.512575
0.381672
0.524278
0.485425
0.585613
0.581137
0.705464
0.672660
0.905726
0.908489
0.853465
0.766277
0.466247
0.247933
0.473361
0.327363
0.568412
0.332069
0.599893
0.495580
0.543878
3.663334
2.271954
0.760577
0.419496
0.538028
0.370924
0.537385
0.380861
0.467908
0.402796
0.389238
0.440129
0.354250
0.519618
0.379469
0.654533
0.409445
0.582879
0.480088
0.537027
0.624775
0.516304
0.511909
0.431882
0.230683
0.285199
0.192768
0.282107
0.386772
0.123514
0.518581
0.225505
0.575899
0.308892
0.500526
0.304661
0.470959
0.385751
0.440747
0.453441
0.385364
0.487285
0.266376
0.472093
0.383073
0.514660
0.447995
0.570199
0.525975
0.643561
0.600359
0.877905
0.872455
0.826115
0.744469
0.437915
0.244213
0.492793
0.356706
0.585169
0.359289
0.615221
0.514008
0.560795
3.662813
2.268283
0.738974
0.375026
0.504459
0.321035
0.504655
0.333715
0.431210
0.361257
0.348912
0.407134
0.313965
0.485955
0.337861
0.623515
0.373555
0.572696
0.454517
0.530451
0.605385
0.497713
0.491734
0.421667
0.227395
0.281182
0.194547
0.273106
0.399718
0.098263
0.521548
0.193671
0.552114
0.273561
0.516514
0.340172
0.477130
0.377058
0.422810
0.415683
0.342912
0.463061
0.302913
0.431995
0.392109
0.506502
0.412614
0.511898
0.460489
0.580827
0.524369
0.812482
0.828434
0.792898
0.698816
0.413716
0.247675
0.514794
0.324576
0.564045
0.324562
0.594629
0.487884
0.535590
3.657568
2.259750
0.712164
0.332856
0.474435
0.272534
0.475848
0.289217
0.398737
0.323772
0.312947
0.378773
0.277692
0.455341
0.298298
0.594111
0.339563
0.565724
0.430311
0.526269
0.586388
0.480440
0.471596
0.412080
0.224922
0.276481
0.198328
0.266385
0.415446
0.081273
0.528078
0.166941
0.530842
0.242895
0.490117
0.312926
0.448717
0.338802
0.388343
0.381406
0.304198
0.429904
0.343506
0.395070
0.408162
0.499809
0.381563
0.452933
0.393969
0.519950
0.447200
0.728639
0.742213
0.754249
0.646610
0.394009
0.257523
0.492719
0.280845
0.538762
0.276582
0.569378
0.456494
0.507068
3.652935
2.252210
0.687743
0.293599
0.448410
0.225779
0.451433
0.248267
0.371240
0.291445
0.282538
0.355805
0.246727
0.428180
0.261341
0.566419
0.307801
0.561921
0.407567
0.524406
0.557830
0.464546
0.451467
0.403130
0.222581
0.272128
0.203902
0.261971
0.433481
0.077337
0.519249
0.147584
0.512239
0.218422
0.466840
0.279422
0.424126
0.303974
0.357681
0.351314
0.270383
0.401840
0.305303
0.364175
0.387891
0.459155
0.357602
0.396442
0.330874
0.467120
0.376381
0.643680
0.635468
0.712701
0.587072
0.379368
0.272724
0.470292
0.239610
0.517157
0.229683
0.547665
0.428847
0.482259
3.648902
2.245647
0.665892
0.258194
0.426868
0.181511
0.431890
0.212362
0.349544
0.265681
0.259133
0.338935
0.222707
0.404944
0.227873
0.540651
0.278824
0.561180
0.386486
0.524766
0.527400
0.450125
0.431350
0.394843
0.215172
0.268141
0.210991
0.256271
0.453310
0.087420
0.507259
0.138036
0.496478
0.201803
0.446985
0.250289
0.403797
0.273505
0.331569
0.326232
0.243013
0.379925
0.266704
0.341645
0.330556
0.392861
0.343990
0.347462
0.279366
0.430420
0.324231
0.565341
0.522815
0.671937
0.521225
0.370502
0.292183
0.451872
0.201864
0.499498
0.184146
0.529736
0.405466
0.461549
3.645458
2.240051
0.646799
0.227915
0.410212
0.141160
0.417581
0.183720
0.334346
0.247920
0.244092
0.328596
0.207248
0.386079
0.199121
0.517090
0.253387
0.563307
0.367346
0.527218
0.497219
0.437294
0.411290
0.387258
0.208761
0.264542
0.219278
0.237906
0.474408
0.106848
0.497381
0.139411
0.483698
0.194220
0.430775
0.226577
0.388047
0.248466
0.310736
0.306942
0.223769
0.364928
0.238471
0.328654
0.285058
0.332267
0.343440
0.312546
0.250723
0.416357
0.303901
0.502402
0.409115
0.624899
0.451330
0.368077
0.314735
0.437649
0.169137
0.485947
0.140408
0.515750
0.386812
0.445239
3.642566
2.235362
0.630472
0.204223
0.398621
0.107509
0.408606
0.165005
0.325972
0.239145
0.238201
0.324857
0.201467
0.371824
0.176577
0.495800
0.232113
0.568051
0.350236
0.531568
0.467422
0.426171
0.391369
0.380422
0.203411
0.261317
0.228516
0.222132
0.496425
0.130908
0.489572
0.150667
0.473888
0.195980
0.418310
0.209442
0.377043
0.229947
0.295756
0.294018
0.214007
0.357118
0.223316
0.325550
0.255950
0.281467
0.357040
0.298307
0.254008
0.426256
0.277130
0.462946
0.300340
0.554136
0.379963
0.372277
0.339280
0.427694
0.143743
0.476515
0.099214
0.505713
0.373157
0.433448
3.640181
2.231509
0.616840
0.188749
0.392114
0.086570
0.404877
0.158591
0.324378
0.239576
0.241401
0.327457
0.205475
0.362285
0.161998
0.476738
0.215561
0.575151
0.335144
0.525191
0.438006
0.416792
0.371589
0.374339
0.199147
0.258440
0.238517
0.209303
0.519121
0.157030
0.483728
0.169329
0.466969
0.206307
0.409633
0.200017
0.370855
0.218967
0.287038
0.287783
0.214260
0.356350
0.222425
0.331913
0.247011
0.246158
0.366275
0.307161
0.285653
0.421441
0.238091
0.450006
0.205217
0.498486
0.310112
0.382595
0.328844
0.422013
0.128938
0.471131
0.063196
0.499555
0.364638
0.426186
3.638272
2.228443
0.605888
0.182798
0.390563
0.086146
0.406137
0.164900
0.329143
0.248469
0.252668
0.335767
0.218028
0.357462
0.156823
0.459972
0.204347
0.579689
0.322141
0.519578
0.408927
0.409165
0.351925
0.369002
0.195974
0.255900
0.249077
0.199743
0.533343
0.183892
0.479772
0.192708
0.462851
0.223425
0.404710
0.198780
0.369371
0.216051
0.284674
0.288165
0.223771
0.362073
0.234538
0.346594
0.258167
0.232245
0.361201
0.330529
0.325642
0.423406
0.253483
0.455688
0.137058
0.464259
0.245523
0.397905
0.302567
0.420462
0.127344
0.469637
0.043447
0.497141
0.361232
0.423356
3.636815
2.226125
0.597594
0.186443
0.393612
0.104884
0.411916
0.181624
0.339452
0.264250
0.270276
0.348831
0.236992
0.357157
0.161117
0.445622
0.198887
0.561413
0.311337
0.516624
0.380195
0.403294
0.330116
0.362722
0.193886
0.253699
0.259981
0.193712
0.547488
0.210743
0.477616
0.218680
0.461395
0.245220
0.403364
0.205131
0.372232
0.220810
0.288277
0.294576
0.240674
0.373355
0.256450
0.367988
0.285021
0.241243
0.375708
0.351973
0.351253
0.448138
0.303111
0.464705
0.108504
0.454231
0.191124
0.416675
0.282985
0.422698
0.138255
0.471739
0.056713
0.498217
0.362661
0.424682
3.635784
2.224512
0.591897
0.198249
0.400692
0.133587
0.421553
0.205240
0.354222
0.285011
0.292310
0.365524
0.260114
0.360945
0.173274
0.433815
0.199156
0.544388
0.302840
0.516200
0.351909
0.399171
0.306076
0.356090
0.192861
0.251838
0.271020
0.191304
0.563106
0.237100
0.477151
0.245749
0.462386
0.269783
0.405255
0.217530
0.378843
0.231969
0.297002
0.305997
0.262717
0.389038
0.284610
0.394274
0.322024
0.266232
0.403114
0.356246
0.344920
0.465146
0.356353
0.463270
0.107381
0.464256
0.152013
0.437218
0.270387
0.428189
0.157908
0.476998
0.087278
0.502404
0.368382
0.429710
3.635133
2.223530
0.588574
0.216118
0.411175
0.166133
0.434371
0.232870
0.372417
0.309147
0.317285
0.384947
0.285857
0.368265
0.191068
0.424394
0.204448
0.528502
0.288957
0.518102
0.324181
0.396751
0.282346
0.350571
0.192844
0.250285
0.282104
0.192369
0.579783
0.262824
0.478182
0.273238
0.465541
0.296018
0.410026
0.234497
0.388656
0.248074
0.309926
0.321400
0.288133
0.408133
0.316600
0.423854
0.364479
0.296646
0.433369
0.335261
0.297314
0.402510
0.274077
0.447299
0.110922
0.484791
0.130141
0.457907
0.264295
0.436471
0.182694
0.484993
0.121559
0.509312
0.377777
0.437944
3.634823
2.223111
0.587402
0.238057
0.424441
0.199847
0.449724
0.262595
0.393118
0.335413
0.344076
0.406338
0.313129
0.378527
0.212489
0.417189
0.213787
0.513650
0.262255
0.522113
0.296980
0.395934
0.259043
0.346183
0.193756
0.249009
0.293159
0.196563
0.576769
0.287830
0.480516
0.300727
0.470576
0.323171
0.417305
0.254693
0.401126
0.267740
0.326129
0.339813
0.315608
0.429779
0.350805
0.455419
0.408892
0.323345
0.443053
0.301095
0.230647
0.348809
0.151170
0.435451
0.137896
0.505388
0.120320
0.477294
0.263474
0.447087
0.210163
0.495309
0.156234
0.518556
0.390207
0.441170
3.634819
2.223198
0.588166
0.262436
0.439855
0.233482
0.466977
0.293148
0.415496
0.362821
0.371781
0.428986
0.341067
0.391121
0.235972
0.412064
0.226147
0.499800
0.237795
0.528020
0.270259
0.396603
0.236197
0.342910
0.195514
0.247990
0.301397
0.203444
0.568312
0.312001
0.483969
0.327850
0.477199
0.350606
0.426673
0.276921
0.415666
0.289725
0.344703
0.360323
0.344125
0.453176
0.386064
0.487903
0.452730
0.339464
0.392244
0.310598
0.262554
0.426041
0.253957
0.473956
0.226095
0.515412
0.113177
0.494249
0.266105
0.459533
0.238750
0.507501
0.190277
0.529718
0.405008
0.443944
3.635090
2.223738
0.590649
0.287962
0.456760
0.266279
0.485480
0.323602
0.438768
0.390526
0.399612
0.452186
0.368899
0.405406
0.260314
0.408914
0.240572
0.487015
0.216004
0.535575
0.244052
0.396533
0.213868
0.340728
0.198020
0.247218
0.308520
0.212499
0.561088
0.328002
0.488356
0.354207
0.485090
0.377697
0.437634
0.300089
0.431620
0.312917