# vtk DataFile Version 2.0
Comment goes here
ASCII
DATASET UNSTRUCTURED_GRID
POINTS 6500 float
47.627109 1.083734 9.878799 
46.208781 1.085380 9.878296 
44.557369 1.087080 9.876640 
42.957905 1.087800 9.870625 
41.512896 1.086667 9.856814 
39.978858 1.085349 9.831663 
38.443264 1.085427 9.797845 
36.914191 1.086367 9.763348 
35.385166 1.086032 9.736975 
33.855689 1.081625 9.722508 
32.332104 1.070067 9.716194 
30.798367 1.051257 9.698218 
29.268032 1.042515 9.601071 
27.757398 1.037681 9.412012 
26.254053 0.994577 9.156198 
24.839759 0.942088 8.627130 
23.504780 0.879710 7.872306 
22.247312 0.803760 6.987077 
21.060794 0.722174 6.045936 
19.869979 0.643310 5.052606 
18.685799 0.561175 4.100946 
17.416821 0.452187 3.226508 
16.088759 0.349210 2.465773 
14.685870 0.283742 1.907755 
13.176951 0.274759 1.796102 
11.741070 0.323722 2.201903 
10.404905 0.395158 2.944455 
9.141090 0.474006 3.847673 
7.939360 0.560465 4.785616 
6.724246 0.659954 5.722059 
5.498539 0.757996 6.629600 
4.240955 0.838240 7.514779 
2.934800 0.906955 8.295753 
1.557087 0.959877 8.941574 
0.118632 0.990003 9.437224 
-1.382791 1.010860 9.720589 
-2.906768 1.032507 9.818041 
-4.435222 1.049087 9.836579 
-5.962340 1.057843 9.833760 
-7.493969 1.067252 9.810456 
-9.022404 1.079167 9.754097 
-10.536606 1.083439 9.630782 
-12.037745 1.084932 9.345585 
-13.510982 1.092990 8.902456 
-14.968191 1.098481 8.449813 
-16.469238 1.082429 8.153960 
-17.985039 1.065804 7.942720 
-19.492370 1.066377 7.754838 
-21.016730 1.071922 7.586154 
-22.541029 1.075052 7.439147 
-24.062400 1.092509 7.303737 
-25.591174 1.127739 7.233977 
-27.096258 1.156864 7.382470 
-28.543093 1.147409 7.848417 
-29.938826 1.109086 8.522845 
-31.314245 1.069432 9.188137 
-32.772015 1.025252 9.614421 
-34.287226 1.016509 9.756167 
-35.824982 1.036418 9.773783 
-37.345861 1.049563 9.792068 
-38.873600 1.058995 9.814071 
-40.404547 1.065854 9.836835 
-41.887495 1.070335 9.858979 
-43.559827 1.073648 9.878305 
47.627109 1.682654 9.771082 
46.208781 1.683942 9.770644 
44.557369 1.685186 9.769069 
42.957905 1.685316 9.763161 
41.512896 1.683469 9.749479 
39.978858 1.681328 9.724475 
38.443264 1.680585 9.690805 
36.914191 1.680730 9.656450 
35.385166 1.679583 9.630224 
33.855689 1.674252 9.615923 
32.332104 1.661462 9.609831 
30.798367 1.640665 9.592212 
29.268032 1.627869 9.495794 
27.757398 1.612716 9.308591 
26.254053 1.546747 9.056889 
24.839759 1.459567 8.534061 
23.504780 1.353346 7.787122 
22.247312 1.227214 6.910918 
21.060794 1.092509 5.979331 
19.869979 0.957325 4.996130 
18.685799 0.818605 4.054647 
17.416821 0.651828 3.190602 
16.088759 0.500031 2.438648 
14.685870 0.403272 1.886257 
13.176951 0.389221 1.775516 
11.741070 0.459945 2.177403 
10.404905 0.572833 2.912500 
9.141090 0.705054 3.806118 
7.939360 0.849640 4.733608 
6.724246 1.008003 5.659462 
5.498539 1.162279 6.556889 
4.240955 1.295803 7.432486 
2.934800 1.411688 8.204976 
1.557087 1.502696 8.843947 
0.118632 1.559408 9.334816 
-1.382791 1.594570 9.615607 
-2.906768 1.622124 9.711997 
-4.435222 1.641036 9.730116 
-5.962340 1.650503 9.727169 
-7.493969 1.659416 9.703954 
-9.022404 1.668825 9.648046 
-10.536606 1.665796 9.526045 
-12.037745 1.651599 9.243669 
-13.510982 1.636732 8.804663 
-14.968191 1.617108 8.356537 
-16.469238 1.579471 8.064566 
-17.985039 1.548009 7.855995 
-19.492370 1.539278 7.669786 
-21.016730 1.538360 7.502264 
-22.541029 1.536596 7.356138 
-24.062400 1.550858 7.221302 
-25.591174 1.586943 7.151389 
-27.096258 1.627609 7.297806 
-28.543093 1.642472 7.759379 
-29.938826 1.636087 8.428063 
-31.314245 1.627903 9.087695 
-32.772015 1.604600 9.510224 
-34.287226 1.604677 9.650384 
-35.824982 1.627641 9.667450 
-37.345861 1.642466 9.685434 
-38.873600 1.652948 9.707248 
-40.404547 1.660397 9.729905 
-41.887495 1.665152 9.752000 
-43.559827 1.668569 9.771307 
47.627109 2.221228 9.641399 
46.208781 2.222194 9.641037 
44.557369 2.223028 9.639562 
42.957905 2.222628 9.633781 
41.512896 2.220139 9.620254 
39.978858 2.217257 9.595428 
38.443264 2.215776 9.561936 
36.914191 2.215205 9.527754 
35.385166 2.213328 9.501704 
33.855689 2.207167 9.487602 
32.332104 2.193268 9.481777 
30.798367 2.170686 9.464588 
29.268032 2.154245 9.369048 
27.757398 2.129812 9.184079 
26.254053 2.043282 8.937328 
24.839759 1.924906 8.422012 
23.504780 1.779260 7.684566 
22.247312 1.608002 6.819228 
21.060794 1.425529 5.899143 
19.869979 1.239701 4.928136 
18.685799 1.050096 3.998906 
17.416821 0.831354 3.147374 
16.088759 0.635655 2.405991 
14.685870 0.510759 1.860375 
13.176951 0.492150 1.750732 
11.741070 0.582442 2.147907 
10.404905 0.732606 2.874028 
9.141090 0.912823 3.756090 
7.939360 1.109677 4.670993 
6.724246 1.320983 5.584099 
5.498539 1.525828 6.469350 
4.240955 1.707263 7.333410 
2.934800 1.865565 8.095687 
1.557087 1.990823 8.726411 
0.118632 2.071441 9.211523 
-1.382791 2.119467 9.489217 
-2.906768 2.152333 9.584328 
-4.435222 2.173341 9.601942 
-5.962340 2.183448 9.598841 
-7.493969 2.191915 9.575733 
-9.022404 2.199070 9.520368 
-10.536606 2.189475 9.399947 
-12.037745 2.161170 9.120969 
-13.510982 2.125687 8.686927 
-14.968191 2.083480 8.244239 
-16.469238 2.026432 7.956942 
-17.985039 1.981628 7.751583 
-19.492370 1.964531 7.567390 
-21.016730 1.957800 7.401267 
-22.541029 1.951635 7.256200 
-24.062400 1.963025 7.122056 
-25.591174 1.999878 7.051958 
-27.096258 2.050923 7.195875 
-28.543093 2.087653 7.652184 
-29.938826 2.109988 8.313952 
-31.314245 2.130103 8.966770 
-32.772015 2.125574 9.384778 
-34.287226 2.133581 9.523029 
-35.824982 2.159294 9.539433 
-37.345861 2.175630 9.557053 
-38.873600 2.187055 9.578640 
-40.404547 2.195036 9.601169 
-41.887495 2.200036 9.623205 
-43.559827 2.203548 9.642490 
47.627109 2.876958 9.473528 
46.208781 2.877532 9.473267 
44.557369 2.877867 9.471919 
42.957905 2.876822 9.466304 
41.512896 2.873550 9.452976 
39.978858 2.869768 9.428381 
38.443264 2.867388 9.395119 
36.914191 2.865945 9.361160 
35.385166 2.863179 9.335338 
33.855689 2.856007 9.321495 
32.332104 2.840759 9.316016 
30.798367 2.816002 9.299383 
29.268032 2.795123 9.204979 
27.757398 2.759392 9.022902 
26.254053 2.647828 8.782561 
24.839759 2.491470 8.276968 
23.504780 2.297824 7.551810 
22.247312 2.071623 6.700538 
21.060794 1.830991 5.795342 
19.869979 1.583502 4.840121 
18.685799 1.331944 3.926752 
17.416821 1.049932 3.091417 
16.088759 0.800782 2.363717 
14.685870 0.641627 1.826872 
13.176951 0.617470 1.718649 
11.741070 0.731586 2.109725 
10.404905 0.927134 2.824228 
9.141090 1.165787 3.691329 
7.939360 1.426281 4.589941 
6.724246 1.702047 5.486545 
5.498539 1.968459 6.356034 
4.240955 2.208228 7.205160 
2.934800 2.418175 7.954215 
1.557087 2.585131 8.574264 
0.118632 2.694857 9.051925 
-1.382791 2.758545 9.325609 
-2.906768 2.797879 9.419064 
-4.435222 2.821439 9.436025 
-5.962340 2.832326 9.432724 
-7.493969 2.840250 9.409756 
-9.022404 2.844660 9.355093 
-10.536606 2.827072 9.236719 
-12.037745 2.781588 8.962139 
-13.510982 2.721005 8.534522 
-14.968191 2.651301 8.098873 
-16.469238 2.570620 7.817626 
-17.985039 2.509572 7.616426 
-19.492370 2.482289 7.434840 
-21.016730 2.468482 7.270529 
-22.541029 2.456958 7.126834 
-24.062400 2.464852 6.993586 
-25.591174 2.502640 6.923248 
-27.096258 2.566321 7.063931 
-28.543093 2.629675 7.513423 
-29.938826 2.686977 8.166239 
-31.314245 2.741548 8.810236 
-32.772015 2.759876 9.222393 
-34.287226 2.777539 9.358172 
-35.824982 2.806597 9.373720 
-37.345861 2.824774 9.390868 
-38.873600 2.837348 9.412161 
-40.404547 2.845975 9.434525 
-41.887495 2.851275 9.456484 
-43.559827 2.854900 9.475739 
47.627109 3.538835 9.280154 
46.208781 3.539014 9.280008 
44.557369 3.538844 9.278808 
42.957905 3.537148 9.273383 
41.512896 3.533086 9.260286 
39.978858 3.528394 9.235957 
38.443264 3.525108 9.202960 
36.914191 3.522786 9.169258 
35.385166 3.519123 9.143697 
33.855689 3.510930 9.130152 
32.332104 3.494319 9.125071 
30.798367 3.467368 9.109080 
29.268032 3.442009 9.015985 
27.757398 3.394874 8.837240 
26.254053 3.258041 8.604281 
24.839759 3.063345 8.109889 
23.504780 2.821248 7.398887 
22.247312 2.539590 6.563816 
21.060794 2.240254 5.675772 
19.869979 1.930526 4.738735 
18.685799 1.616434 3.843635 
17.416821 1.270560 3.026958 
16.088759 0.967457 2.315022 
14.685870 0.773722 1.788279 
13.176951 0.743964 1.681693 
11.741070 0.882128 2.065743 
10.404905 1.123486 2.766862 
9.141090 1.421123 3.616730 
7.939360 1.745853 4.496574 
6.724246 2.086682 5.374170 
5.498539 2.415239 6.225502 
4.240955 2.713889 7.057426 
2.934800 2.975965 7.791251 
1.557087 3.185011 8.399003 
0.118632 3.324117 8.868080 
-1.382791 3.403614 9.137146 
-2.906768 3.449475 9.228693 
-4.435222 3.475613 9.244902 
-5.962340 3.487286 9.241371 
-7.493969 3.494661 9.218563 
-9.022404 3.496301 9.164709 
-10.536606 3.470645 9.048692 
-12.037745 3.407822 8.779178 
-13.510982 3.321903 8.358964 
-14.968191 3.224445 7.931423 
-16.469238 3.119910 7.657146 
-17.985039 3.042465 7.460736 
-19.492370 3.004900 7.282154 
-21.016730 2.983950 7.119930 
-22.541029 2.967018 6.977815 
-24.062400 2.971382 6.845598 
-25.591174 3.010114 6.774984 
-27.096258 3.086550 6.911940 
-28.543093 3.176778 7.353581 
-29.938826 3.269375 7.996086 
-31.314245 3.358724 8.629922 
-32.772015 3.400124 9.035338 
-34.287226 3.427534 9.168269 
-35.824982 3.459968 9.182831 
-37.345861 3.480002 9.199436 
-38.873600 3.493736 9.220390 
-40.404547 3.503015 9.242564 
-41.887495 3.508618 9.264434 
-43.559827 3.512359 9.283656 
47.627109 4.137706 9.057629 
46.208781 4.137527 9.057616 
44.557369 4.136901 9.056585 
42.957905 4.134615 9.051379 
41.512896 4.129839 9.038548 
39.978858 4.124325 9.014525 
38.443264 4.120218 8.981832 
36.914191 4.117100 8.948426 
35.385166 4.112624 8.923167 
33.855689 4.103509 8.909965 
32.332104 4.085665 8.905342 
30.798367 4.056728 8.890089 
29.268032 4.027316 8.798500 
27.757398 3.969862 8.623589 
26.254053 3.810166 8.399125 
24.839759 3.580781 7.917623 
23.504780 3.294846 7.222910 
22.247312 2.963010 6.406485 
[...]
POINT_DATA 6500
SCALARS sample_scalars float 1
LOOKUP_TABLE my_table
3.642871
2.230594
0.621515
0.206531
0.374411
0.072359
0.436439
0.139867
0.373532
0.220297
0.308494
0.290093
0.285276
0.294497
0.260452
0.450511
0.241586
0.512589
0.219708
0.522756
0.285975
0.411334
0.255471
0.436895
0.103726
0.344169
0.162319
0.387890
0.321242
0.247375
0.436370
0.261709
0.458409
0.190524
0.407320
0.146613
0.460999
0.087100
0.525170
0.067983
0.463423
0.133728
0.462917
0.221066
0.435652
0.219977
0.539882
0.146068
0.563052
0.577914
0.774239
0.783046
0.755704
0.685386
0.377724
0.392735
0.160282
0.448925
0.122166
0.497372
0.067005
0.485548
0.376452
0.424846
3.642773
2.230491
0.621365
0.203716
0.372819
0.063978
0.435474
0.138273
0.373130
0.218508
0.304890
0.282637
0.277731
0.292512
0.254861
0.449552
0.243940
0.517673
0.232921
0.527249
0.304916
0.414687
0.264269
0.436766
0.100838
0.344499
0.164967
0.391828
0.319878
0.250596
0.434049
0.261021
0.453675
0.177734
0.397706
0.113351
0.452828
0.042694
0.520689
0.035957
0.461885
0.163976
0.490854
0.225618
0.436724
0.154676
0.550340
0.167739
0.565501
0.551616
0.777886
0.774048
0.754837
0.687472
0.391620
0.392281
0.213860
0.440551
0.090523
0.491970
0.010463
0.481694
0.371951
0.421146
3.642444
2.229937
0.619315
0.204223
0.373250
0.066745
0.435648
0.137606
0.372712
0.218867
0.307506
0.289256
0.284353
0.292598
0.259229
0.446481
0.240450
0.512749
0.225011
0.522681
0.302580
0.413977
0.263413
0.438344
0.104166
0.347726
0.155421
0.389276
0.318066
0.247426
0.433638
0.261076
0.458573
0.190080
0.409320
0.148117
0.461169
0.084356
0.524600
0.064494
0.463194
0.137155
0.467410
0.148909
0.453594
0.119507
0.514731
0.242335
0.578420
0.525050
0.739091
0.787132
0.746688
0.662145
0.351236
0.412064
0.175096
0.449161
0.119971
0.496527
0.059668
0.484596
0.375273
0.423862
3.642994
2.230857
0.622688
0.203904
0.372743
0.061153
0.434481
0.132867
0.370550
0.213913
0.302443
0.281764
0.275682
0.291653
0.256075
0.451047
0.245423
0.522302
0.238843
0.523873
0.322828
0.418178
0.273146
0.437982
0.098184
0.348118
0.152033
0.392825
0.312565
0.248577
0.426204
0.258354
0.450404
0.178143
0.401264
0.129201
0.456229
0.060728
0.521854
0.041115
0.460653
0.146310
0.477682
0.158450
0.459473
0.112616
0.510652
0.274676
0.588049
0.505282
0.710202
0.745148
0.722807
0.648695
0.358303
0.399642
0.202214
0.443399
0.098427
0.492792
0.026443
0.482312
0.372941
0.422216
3.645538
2.235012
0.637376
0.216963
0.378989
0.084848
0.436821
0.135304
0.369757
0.209690
0.296866
0.272417
0.262258
0.297146
0.259745
0.471736
0.264410
0.546340
0.265148
0.524196
0.340873
0.418844
0.286137
0.438221
0.091672
0.349982
0.144620
0.399987
0.299312
0.251815
0.407984
0.255320
0.431208
0.160700
0.387853
0.111658
0.453194
0.056558
0.522105
0.041997
0.458899
0.155151
0.483638
0.171129
0.461340
0.117311
0.511683
0.277354
0.581898
0.470614
0.672094
0.672385
0.660354
0.626242
0.361948
0.379746
0.230972
0.437522
0.075991
0.490908
0.025797
0.483862
0.376572
0.426576
3.647663
2.238471
0.649330
0.227070
0.383907
0.097901
0.437400
0.129839
0.365743
0.200613
0.290265
0.265440
0.250110
0.298894
0.265849
0.489849
0.278982
0.564028
0.279479
0.519523
0.360991
0.422668
0.297934
0.439602
0.089661
0.353741
0.131309
0.404255
0.285388
0.251066
0.388844
0.250054
0.414056
0.149215
0.382370
0.123741
0.456721
0.081711
0.525040
0.058455
0.457178
0.134409
0.465487
0.139700
0.476935
0.164028
0.509085
0.284257
0.571188
0.430429
0.630662
0.603649
0.592127
0.594379
0.339993
0.373709
0.216643
0.437631
0.076559
0.491632
0.049130
0.486871
0.381993
0.432594
3.649419
2.241348
0.659218
0.247460
0.395752
0.131754
0.443271
0.138402
0.366388
0.202316
0.295952
0.278552
0.257602
0.302773
0.288386
0.506363
0.294060
0.570403
0.276793
0.508112
0.369632
0.419935
0.298818
0.442459
0.094107
0.357818
0.113130
0.404630
0.279160
0.248730
0.379153
0.250838
0.413845
0.174095
0.404025
0.199190
0.481102
0.160315
0.540410
0.127882
0.465590
0.095101
0.420880
0.077717
0.526213
0.271285
0.512618
0.326559
0.567868
0.391007
0.585081
0.555286
0.545041
0.554561
0.280720
0.401458
0.143880
0.458270
0.145675
0.504737
0.122363
0.500158
0.400356
0.450387
3.650992
2.243927
0.668000
0.266141
0.407382
0.160982
0.451345
0.157850
0.372852
0.213621
0.305357
0.290902
0.267270
0.311426
0.305104
0.517686
0.307275
0.577823
0.283238
0.504558
0.378359
0.419804
0.303318
0.444300
0.096022
0.358478
0.105328
0.406988
0.277640
0.251770
0.375568
0.256425
0.416137
0.192448
0.417971
0.234388
0.496329
0.197301
0.551495
0.164414
0.474626
0.106334
0.409686
0.093873
0.520813
0.250784
0.520696
0.331392
0.554454
0.348932
0.544743
0.480232
0.472317
0.520715
0.270064
0.414044
0.126350
0.471580
0.178964
0.514538
0.158187
0.510633
0.414355
0.463767
3.652920
2.247093
0.678652
0.288758
0.422200
0.193293
0.462297
0.182620
0.382620
0.230059
0.318631
0.307058
0.280889
0.323252
0.325166
0.530853
0.323139
0.586162
0.291192
0.501593
0.387493
0.420077
0.307988
0.444745
0.098969
0.359366
0.099588
0.410000
0.278030
0.256755
0.373890
0.264948
0.420876
0.214531
0.434779
0.270894
0.514314
0.235288
0.565154
0.202065
0.486739
0.129921
0.402753
0.125057
0.521523
0.213801
0.526264
0.331324
0.537270
0.299155
0.499442
0.401890
0.401026
0.459535
0.265216
0.424865
0.119479
0.487520
0.213664
0.526826
0.194796
0.523750
0.431513
0.480149
3.655231
2.250883
0.691220
0.314638
0.440003
0.227605
0.476039
0.211089
0.395575
0.250810
0.335429
0.326538
0.298006
0.338090
0.348083
0.545871
0.341421
0.595524
0.300716
0.499296
0.397110
0.420807
0.312869
0.445078
0.102952
0.360512
0.096342
0.413702
0.280291
0.263663
0.374116
0.276229
0.427944
0.239373
0.454100
0.308237
0.534788
0.273933
0.581253
0.240439
0.501770
0.160267
0.399539
0.157258
0.516727
0.182394
0.529158
0.300295
0.520946
0.246538
0.451711
0.335089
0.348503
0.404412
0.265357
0.434165
0.123589
0.505793
0.249259
0.541484
0.231967
0.539386
0.451554
0.499315
3.657914
2.255281
0.705553
0.343061
0.460466
0.263199
0.492394
0.242125
0.411537
0.275088
0.355389
0.348910
0.318242
0.355661
0.373329
0.562479
0.361695
0.605770
0.311649
0.497763
0.407136
0.422010
0.317919
0.445565
0.107928
0.361918
0.096007
0.418055
0.284510
0.272401
0.376454
0.290056
0.437416
0.266340
0.475689
0.330646
0.557463
0.312979
0.599595
0.279275
0.519515
0.194158
0.399801
0.187166
0.504692
0.153189
0.530390
0.256431
0.510852
0.203321
0.407680
0.302466
0.336246
0.372426
0.270874
0.443722
0.136263
0.526165
0.285475
0.558358
0.269519
0.557342
0.474113
0.520942
3.660954
2.260259
0.721473
0.373415
0.483233
0.299618
0.511133
0.274948
0.430249
0.302161
0.378094
0.373726
0.341169
0.375633
0.400425
0.564086
0.383558
0.616761
0.323817
0.497083
0.417498
0.423697
0.323091
0.446212
0.111164
0.363582
0.098752
0.423012
0.290711
0.282830
0.381048
0.306155
0.449294
0.294922
0.483586
0.292803
0.535632
0.319536
0.618630
0.318376
0.539724
0.229968
0.403411
0.214297
0.492685
0.125385
0.531819
0.206832
0.511378
0.189920
0.377220
0.320269
0.371919
0.378023
0.282407
0.455953
0.155218
0.536891
0.322103
0.577254
0.307298
0.577383
0.498808
0.544686
3.664352
2.265815
0.738880
0.405269
0.507998
0.336609
0.532030
0.309054
0.451424
0.331419
0.403126
0.400555
0.366334
0.397709
0.386757
0.547160
0.379639
0.628460
0.337135
0.497327
0.428199
0.425892
0.328384
0.447033
0.110449
0.365516
0.104393
0.428553
0.298788
0.294803
0.387873
0.324228
0.463421
0.324701
0.461223
0.255702
0.514926
0.280407
0.598549
0.312147
0.561183
0.266828
0.410139
0.238867
0.480366
0.100639
0.535830
0.154426
0.521908
0.217490
0.368736
0.280215
0.405893
0.360215
0.301957
0.447780
0.179255
0.515595
0.307316
0.583876
0.323042
0.580094
0.489327
0.523530
3.663432
2.263575
0.729470
0.383104
0.492539
0.330077
0.546960
0.344157
0.474803
0.362413
0.430120
0.402487
0.393333
0.421668
0.361068
0.531696
0.359536
0.640948
0.351612
0.498561
0.439311
0.428635
0.333839
0.448045
0.110468
0.367745
0.112503
0.431364
0.304938
0.308190
0.396758
0.344005
0.475683
0.303399
0.441052
0.219747
0.496732
0.241595
0.580473
0.273717
0.539100
0.304248
0.419650
0.262193
0.467754
0.083306
0.543335
0.104808
0.490075
0.272893
0.384044
0.252858
0.409677
0.348582
0.332490
0.428439
0.208083
0.496329
0.270868
0.564621
0.286113
0.560346
0.465978
0.502044
3.660769
2.259246
0.715864
0.354607
0.470611
0.295655
0.526109
0.332195
0.480672
0.366248
0.408742
0.375053
0.374995
0.440980
0.337492
0.517967
0.341280
0.635203
0.367229
0.500853
0.450875
0.431958
0.339479
0.449267
0.111303
0.370289
0.122618
0.427021
0.292612
0.315358
0.407572
0.339637
0.455739
0.273362
0.423340
0.185563
0.481335
0.203362
0.564638
0.235674
0.519119
0.327172
0.431745
0.287521
0.455360
0.082394
0.556578
0.072792
0.465440
0.264475
0.416975
0.257702
0.431830
0.359939
0.373212
0.408384
0.241475
0.479312
0.234796
0.547261
0.249484
0.542639
0.444925
0.482986
3.658474
2.255515
0.703972
0.328227
0.450950
0.262310
0.507183
0.299491
0.457881
0.335862
0.383124
0.349246
0.347331
0.419046
0.316539
0.506210
0.325272
0.629285
0.383785
0.504255
0.462793
0.435848
0.345245
0.450697
0.112984
0.373134
0.123209
0.423300
0.281641
0.302816
0.392209
0.320317
0.437226
0.244266
0.408340
0.154173
0.468973
0.166094
0.551247
0.198297
0.501519
0.289486
0.446706
0.296164
0.444522
0.101746
0.539466
0.082811
0.449623
0.219388
0.459093
0.284117
0.463083
0.389345
0.420287
0.389956
0.278318
0.464769
0.199307
0.532001
0.213380
0.527211
0.426546
0.466684
3.656525
2.252352
0.693772
0.304436
0.433821
0.230463
0.490406
0.267884
0.436958
0.306814
0.359439
0.325529
0.321147
0.398683
0.298688
0.496370
0.311712
0.624152
0.390305
0.508800
0.474994
0.440291
0.351095
0.452335
0.115519
0.376266
0.109987
0.420179
0.272326
0.291510
0.375687
0.302506
0.420528
0.216592
0.396413
0.127470
0.459832
0.130419
0.540439
0.161965
0.486565
0.252245
0.464939
0.266242
0.437173
0.135066
0.523798
0.122131
0.442388
0.188383
0.435124
0.318843
0.495324
0.427183
0.468740
0.375514
0.317354
0.452974
0.164770
0.519020
0.178064
0.514231
0.411135
0.453359
3.654918
2.249750
0.685309
0.283899
0.419545
0.200887
0.476052
0.237944
0.418277
0.279664
0.338200
0.304490
0.296979
0.380223
0.284507
0.488476
0.300879
0.618232
0.383365
0.514507
0.487494
0.445294
0.357035
0.454190
0.118915
0.379691
0.098047
0.417659
0.264926
0.281632
0.360819
0.286570
0.406004
0.191082
0.387870
0.108781
0.454068
0.097962
0.532359
0.127586
0.474538
0.215558
0.486809
0.233590
0.435630
0.176704
0.510890
0.169048
0.442570
0.172505
0.412760
0.354353
0.523740
0.465785
0.514399
0.366809
0.348053
0.444182
0.131993
0.508509
0.144163
0.503891
0.399022
0.443253
3.653662
2.247725
0.678690
0.267440
0.408472
0.174871
0.464408
0.210562
0.402254
0.255175
0.319994
0.286798
0.275476
0.364076
0.274572
0.482635
0.293095
0.613165
0.377540
0.521399
0.500359
0.450878
0.358244
0.456278
0.123178
0.383428
0.087969
0.415765
0.259611
0.273390
0.347870
0.272918
0.393931
0.168798
0.382899
0.102323
0.451757
0.072990
0.527125
0.097290
0.465688
0.179867
0.486853
0.197589
0.442054
0.223080
0.502477
0.216824
0.449080
0.172056
0.396654
0.387663
0.545835
0.500660
0.554898
0.364552
0.310876
0.438577
0.102704
0.500646
0.113055
0.496374
0.390523
0.436588
3.652784
2.246320
0.674109
0.256007
0.400963
0.154471
0.455772
0.187097
0.389329
0.234350
0.305452
0.273145
0.257366
0.350735
0.269388
0.479071
0.288737
0.609616
0.373057
0.529489
0.513597
0.456501
0.358610
0.458609
0.128276
0.387480
0.080441
0.414553
0.256409
0.267013
0.336974
0.261979
0.384435
0.151164
0.381511
0.109905
0.452882
0.064661
0.524823
0.076195
0.460214
0.146242
0.461496
0.159956
0.457188
0.271023
0.499659
0.263669
0.461126
0.186136
0.386710
0.418571
0.560839
0.529408
0.588949
0.368221
0.274950
0.436231
0.080734
0.495573
0.087942
0.491844
0.385919
0.433550
3.652286
2.245538
0.671611
0.250284
0.397216
0.142144
0.450337
0.169287
0.379876
0.218336
0.295164
0.264180
0.243478
0.340604
0.269175
0.477806
0.287927
0.607616
0.370007
0.525175
0.527085
0.454831
0.359130
0.461168
0.134121
0.387917
0.076245
0.414028
0.255389
0.262663
0.328372
0.254147
0.377725
0.139951
0.383677
0.128759
0.457334
0.078104
0.525449
0.072591
0.458219
0.117191
0.438384
0.126077
0.480028
0.317611
0.502641
0.276802
0.478284
0.213176
0.384044
0.385585
0.570092
0.550967
0.615815
0.376712
0.241022
0.437133
0.072847
0.493364
0.075006
0.490362
0.385308
0.434168
3.652145
2.245343
0.671094
0.250505
0.397250
0.139845
0.448184
0.159021
0.374172
0.208290
0.289614
0.260424
0.234672
0.333955
0.273817
0.478649
0.290507
0.607201
0.368340
0.519924
0.540777
0.453632
0.359756
0.463951
0.140641
0.387618
0.076008
0.414144
0.256674
0.260425
0.322441
0.249737
0.374121
0.136817
0.389356
0.154594
0.464931
0.104906
0.528923
0.088301
0.459717
0.097770
0.418835
0.104864
0.508154
0.277307
0.510725
0.221481
0.500267
0.250992
0.390696
0.332259
0.554099
0.565906
0.620593
0.388955
0.209490
0.441213
0.082989
0.494024
0.080065
0.491891
0.388602
0.438312
3.652352
2.245719
0.672504
0.256568
0.401011
0.147942
0.449350
0.157813
0.372423
0.205156
0.289109
0.262121
0.231617
0.331030
0.282976
0.481471
0.296274
0.608378
0.368056
0.515670
0.547970
0.452915
0.360468
0.464504
0.147782
0.387556
0.079785
0.414874
0.260257
0.260355
0.319432
0.248958
0.373791
0.142317
0.398363
0.184268
0.475431
0.137183
0.535128
0.115483
0.464640
0.094517
0.403975
0.105388
0.510607
0.218630
0.523035
0.166008
0.501937
0.293891
0.407189
0.281380
0.505197
0.536876
0.592594
0.404023
0.181087
0.448321
0.105964
0.497511
0.100258
0.496355
0.395624
0.445797
3.652914
2.246677
0.675867
0.268076
0.408395
0.164923
0.453828
0.165955
0.374736
0.209327
0.293703
0.269160
0.234571
0.332025
0.296164
0.486248
0.305034
0.611123
0.369243
0.512496
0.551771
0.452714
0.361293
0.464464
0.155513
0.387752
0.087004
0.416224
0.265974
0.262478
0.319389
0.251872
0.376687
0.155476
0.410362
0.215944
0.488536
0.171652
0.543915
0.147782
0.472837
0.108698
0.394499
0.125131
0.485349
0.161852
0.539047
0.113530
0.478866
0.239094
0.431679
0.238970
0.457622
0.496159
0.559198
0.421189
0.157088
0.458221
0.135228
0.503742
0.128556
0.503645
0.406130
0.456399
3.653852
2.248250
0.681258
0.284426
0.419244
0.188478
0.461563
0.182332
0.381106
0.220488
0.303194
0.281119
0.243327
0.337053
0.312828
0.493018
0.316587
0.614783
0.372041
0.510494
0.555935
0.453078
0.362286
0.464623
0.162275
0.388237
0.096815
0.418216
0.273555
0.266786
0.322184
0.258382
0.382596
0.174481
0.424935
0.248597
0.503925
0.207042
0.555112
0.182390
0.484097
0.134383
0.390511
0.154058
0.467876
0.107075
0.543941
0.073679
0.464024
0.198602
0.434165
0.210672
0.415062
0.455195
0.522229
0.439817
0.139400
0.470624
0.167375
0.512596
0.160698
0.513630
0.419832
0.469874
3.655155
2.250417
0.688568
0.304742
0.433232
0.216368
0.472364
0.204951
0.391335
0.237661
0.317138
0.297393
0.257330
0.345940
0.332348
0.501592
0.330532
0.617844
0.376385
0.509708
0.560430
0.454006
0.363426
0.464981
0.161772
0.389006
0.108491
0.420812
0.282852
0.273158
0.327808
0.268225
0.391426
0.197632
0.441784
0.281733
0.521309
0.242777
0.568510
0.218060
0.498159
0.165801
0.391664
0.186121
0.457394
0.055295
0.548343
0.071696
0.457759
0.178561
0.414448
0.198449
0.380800
0.416678
0.483696
0.459306
0.130186
0.485264
0.200924
0.523903
0.194667
0.526098
0.436345
0.485891
3.656798
2.253136
0.697599
0.328119
0.449950
0.246943
0.485954
0.231886
0.405088
0.259605
0.334943
0.317289
0.275805
0.358331
0.354116
0.511678
0.346395
0.621714
0.382116
0.510160
0.565175
0.455469
0.364662
0.465529
0.161912
0.390037
0.121481
0.423945
0.293745
0.281405
0.336243
0.281022
0.403090
0.223622
0.460648
0.315063
0.540403
0.278539
0.583873
0.254166
0.514723
0.199889
0.397446
0.218970
0.452926
0.020958
0.542451
0.106812
0.459213
0.178480
0.405250
0.195706
0.357969
0.383307
0.445758
0.460620
0.130664
0.501872
0.235164
0.537449
0.229487
0.540792
0.455240
0.504083
3.658766
2.256384
0.708218
0.353827
0.469015
0.279189
0.502049
0.261728
0.421985
0.285170
0.355984
0.340114
0.297899
0.373855
0.377621
0.499991
0.363715
0.626325
0.389140
0.511869
0.570148
0.457459
0.365977
0.466265
0.162711
0.391321
0.127460
0.417955
0.306033
0.291332
0.347295
0.296355
0.417346
0.251498
0.481210
0.342248
0.555372
0.314132
0.600959
0.290375
0.533472
0.235191
0.407256
0.251934
0.453417
0.055285
0.541801
0.144805
0.464946
0.187507
0.403938
0.191802
0.349228
0.358109
0.410768
0.435351
0.140004
0.520152
0.269696
0.553006
0.264675
0.557453
0.476123
0.524107
3.661068
2.260168
0.720380
0.381341
0.490109
0.312525
0.520388
0.293568
0.441656
0.313450
0.379677
0.365246
0.322821
0.392186
0.391500
0.477712
0.338633
0.631736
0.397468
0.514865
0.575408
0.459993
0.367403
0.467203
0.164203
0.392875
0.117652
0.411643
0.313711
0.302766
0.360611
0.313823
0.433813
0.280590
0.503107
0.313907
0.537315
0.303570
0.607868
0.326501
0.554094
0.270990
0.420457
0.284994
0.457895
0.099440
0.547091
0.164044
0.467526
0.188163
0.405983
0.188968
0.360107
0.343582
0.381734
0.414137
0.155823
0.539794
0.304275
0.570348
0.299990
0.575847
0.494414
0.520065
3.663715
2.263756
0.726193
0.388996
0.498521
0.345855
0.540739
0.326833
0.463761
0.343782
0.405539
0.392191
0.349942
0.413028
0.365720
0.456789
0.314847
0.629406
0.407120
0.519170
0.581031
0.463094
0.367344
0.468358
0.166419
0.394715
0.109853
0.405957
0.306666
0.315544
0.375822
0.333078
0.452119
0.310473
0.493626
0.287592
0.521440
0.269183
0.590026
0.291012
0.545402
0.306956
0.436490
0.306083
0.465654
0.137354
0.555244
0.150622
0.461688
0.180269
0.413617
0.223655
0.403440
0.341961
0.361789
0.397045
0.175572
0.536807
0.326641
0.588400
0.320004
0.571373
0.470435
0.498576
3.660661
2.257969
0.708152
0.357313
0.474230
0.308688
0.538719
0.357930
0.487927
0.375621
0.433143
0.410737
0.378787
0.435967
0.341848
0.437479
0.292668
0.616519
0.417922
0.524751
0.586947
0.466725
0.363091
0.469717
0.169320
0.396819
0.104392
0.400944
0.301242
0.311889
0.392766
0.352689
0.472102
0.319830
0.477630
0.263560
0.507779
0.235888
0.574202
0.254800
0.526028
0.332869
0.454979
0.280987
0.475925
0.164619
0.561634
0.097328
0.455792
0.219274
0.429149
0.343241
0.495349
0.356793
0.354076
0.383724
0.197349
0.520238
0.293225
0.569326
0.283381
0.552391
0.448560
0.479330
3.657426
2.252779
0.691656
0.327170
0.451979
0.272013
0.517200
0.322187
0.474886
0.359608
0.406784
0.383123
0.384698
0.456226
0.320147
0.419773
0.272263
0.604411
0.417996
0.531545
0.593064
0.467973
0.358949
0.471264
0.172846
0.395025
0.101612
0.396577
0.297548
0.298247
0.380484
0.331668
0.455417
0.291031
0.463754
0.242283
0.496403
0.203940
0.560466
0.219311
0.508978
0.300345
0.475594
0.259465
0.487841
0.177501
0.547737
0.080946
0.486909
0.377536
0.583707
0.543398
0.641117
0.393399
0.361913
0.373449
0.220014
0.505625
0.260671
0.552109
0.247071
0.535431
0.428970
0.462462
3.654545
2.248163
0.676718
0.298901
0.431996
0.235923
0.497776
0.287323
0.450947
0.327653
0.380638
0.357385
0.355851
0.430915
0.300969
0.403695
0.253872
0.593025
0.404981
0.539506
0.599376
0.463625
0.354892
0.472564
0.176965
0.392458
0.101700
0.392832
0.295675
0.285989
0.368173
0.312239
0.440311
0.263592
0.452184
0.224395
0.487394
0.173854
0.548907
0.184777
0.494438
0.269733
0.497973
0.241837
0.500474
0.171225
0.547780
0.238848
0.604879
0.638613
0.806699
0.804144
0.837623
0.456576
0.388252
0.365277
0.243031
0.493067
0.229271
0.536889
0.211108
0.520627
0.411890
0.448133
3.652016
2.244116
0.663418
0.273004
0.414556
0.200647
0.480681
0.253693
0.429291
0.297467
0.356793
0.333939
0.328856
0.407342
0.284711
0.389358
0.237843
0.582395
0.392954
0.539157
0.605934
0.459778
0.350925
0.470936
0.181661
0.390144
0.104565
0.389704
0.295609
0.275286
0.358187
0.294714
0.427541
0.237951
0.443030
0.210526
0.480776
0.146479
0.539592
0.151626
0.482571
0.241597
0.521754
0.228288
0.512057
0.137571
0.545347
0.475755
0.825292
0.973863
1.111668
1.092926
0.998613
0.550213
0.434383
0.358333
0.266348
0.482625
0.199458
0.523803
0.175583
0.508111
0.397556
0.436496
3.649851
2.240660
0.651908
0.250151
0.399946
0.166604
0.466152
0.221851
0.410283
0.269636
0.335699
0.313220
0.304164
0.385903
0.271744
0.376989
0.224625
0.572676
0.382118
0.531673
0.602748
0.456477
0.347099
0.469507
0.183637
0.388110
0.109836
0.387213
0.297195
0.266321
0.350578
0.279423
0.417168
0.214606
0.436246
0.201066
0.476469
0.123085