# vtk DataFile Version 2.0
Comment goes here
ASCII
DATASET UNSTRUCTURED_GRID
POINTS 6500 float
47.627109 1.048624 9.813876 
46.214387 1.052464 9.809741 
44.568444 1.056894 9.804905 
42.972341 1.060886 9.800157 
41.534707 1.063295 9.795837 
40.005841 1.066052 9.790751 
38.475355 1.070699 9.786151 
36.951396 1.075928 9.778313 
35.427691 1.078158 9.758521 
33.903819 1.075280 9.731802 
32.386086 1.065095 9.699863 
30.858052 1.048233 9.656591 
29.331221 1.037401 9.587840 
27.819363 1.028374 9.459991 
26.328603 0.986879 9.186368 
24.919297 0.937176 8.648244 
23.579543 0.876949 7.904253 
22.310825 0.800889 7.048449 
21.103394 0.717240 6.148099 
19.900023 0.637660 5.192356 
18.711876 0.558134 4.240558 
17.471382 0.456958 3.324937 
16.160214 0.356866 2.552240 
14.753256 0.287034 2.040543 
13.242286 0.272276 1.943548 
11.790692 0.323709 2.277695 
10.439091 0.397028 2.963539 
9.168374 0.471290 3.854645 
7.974175 0.549802 4.793857 
6.764389 0.646769 5.729955 
5.543228 0.749345 6.629541 
4.290747 0.836415 7.515204 
2.996291 0.909829 8.311203 
1.627909 0.963679 8.955457 
0.179949 0.990034 9.411512 
-1.319749 1.006264 9.661493 
-2.839593 1.022586 9.738524 
-4.363447 1.034005 9.738118 
-5.884885 1.038819 9.723386 
-7.409903 1.046513 9.703913 
-8.935261 1.060237 9.663964 
-10.444222 1.071570 9.554235 
-11.947853 1.084708 9.300572 
-13.428934 1.101779 8.918731 
-14.893590 1.113439 8.507122 
-16.384466 1.109927 8.178946 
-17.896753 1.104606 7.983102 
-19.404102 1.110957 7.868652 
-20.928146 1.117835 7.758223 
-22.450410 1.120404 7.649554 
-23.970690 1.141788 7.587694 
-25.494982 1.181423 7.594980 
-26.994751 1.205078 7.784737 
-28.458475 1.180169 8.204844 
-29.892104 1.120889 8.744914 
-31.328177 1.066445 9.242976 
-32.806746 1.026666 9.572009 
-34.324306 1.022625 9.684864 
-35.857247 1.037621 9.691353 
-37.372541 1.045314 9.701022 
-38.895021 1.050749 9.710524 
-40.420502 1.055042 9.716761 
-41.898415 1.057952 9.720497 
-43.565667 1.060233 9.722694 
47.627109 1.642397 9.707085 
46.214387 1.646201 9.702957 
44.568444 1.650575 9.698130 
42.972341 1.654456 9.693402 
41.534707 1.656672 9.689117 
40.005841 1.659208 9.684071 
38.475355 1.663706 9.679498 
36.951396 1.668763 9.671691 
35.427691 1.670551 9.651978 
33.903819 1.666965 9.625387 
32.386086 1.655739 9.593634 
30.858052 1.637216 9.550661 
29.331221 1.622267 9.482650 
27.819363 1.602501 9.356734 
26.328603 1.538996 9.087069 
24.919297 1.455747 8.554979 
23.579543 1.352316 7.818758 
22.310825 1.225992 6.971994 
21.103394 1.088330 6.081358 
19.900023 0.951869 5.135845 
18.711876 0.815894 4.194199 
17.471382 0.658843 3.288628 
16.160214 0.510342 2.524637 
14.753256 0.407694 2.018842 
13.242286 0.386077 1.923081 
11.790692 0.459118 2.253341 
10.439091 0.574030 2.931705 
9.168374 0.700970 3.813337 
7.974175 0.836102 4.742365 
6.764389 0.991484 5.667958 
5.543228 1.150832 6.557333 
4.290747 1.292126 7.433243 
2.996291 1.413406 8.220634 
1.627909 1.505683 8.857977 
0.179949 1.558713 9.309234 
-1.319749 1.589036 9.556681 
-2.839593 1.610729 9.632746 
-4.363447 1.623768 9.632048 
-5.884885 1.628763 9.617284 
-7.409903 1.635810 9.597926 
-8.935261 1.647449 9.558353 
-10.444222 1.652872 9.449687 
-11.947853 1.652604 9.198435 
-13.428934 1.648371 8.820426 
-14.893590 1.635514 8.413226 
-16.384466 1.612075 8.088634 
-17.896753 1.593403 7.895191 
-19.404102 1.591285 7.782264 
-20.928146 1.591748 7.672989 
-22.450410 1.589297 7.565222 
-23.970690 1.608088 7.503830 
-25.494982 1.648867 7.510910 
-26.994751 1.681944 7.698972 
-28.458475 1.677982 8.115312 
-29.892104 1.648236 8.650070 
-31.328177 1.624810 9.142554 
-32.806746 1.606666 9.467695 
-34.324306 1.611763 9.578906 
-35.857247 1.629050 9.584983 
-37.372541 1.637634 9.594492 
-38.895021 1.643533 9.603911 
-40.420502 1.648042 9.610109 
-41.898415 1.650996 9.613837 
-43.565667 1.653231 9.616042 
47.627109 2.176343 9.578516 
46.214387 2.180113 9.574395 
44.568444 2.184437 9.569581 
42.972341 2.188219 9.564877 
41.534707 2.190261 9.560634 
40.005841 2.192598 9.555635 
38.475355 2.196962 9.551095 
36.951396 2.201865 9.543325 
35.427691 2.203255 9.523708 
33.903819 2.199032 9.497270 
32.386086 2.186871 9.465743 
30.858052 2.166854 9.423129 
29.331221 2.148202 9.356010 
27.819363 2.118780 9.232418 
26.328603 2.035482 8.967520 
24.919297 1.922068 8.442693 
23.579543 1.779787 7.715827 
22.310825 1.608261 6.879947 
21.103394 1.422031 6.001006 
19.900023 1.234419 5.067810 
18.711876 1.047682 4.138387 
17.471382 0.840387 3.244913 
16.160214 0.648354 2.491405 
14.753256 0.516196 1.992715 
13.242286 0.488412 1.898440 
11.790692 0.580883 2.224021 
10.439091 0.733197 2.893379 
9.168374 0.907508 3.763604 
7.974175 1.093555 4.680373 
6.764389 1.301466 5.593317 
5.543228 1.511865 6.470400 
4.290747 1.701920 7.334569 
2.996291 1.866243 8.111595 
1.627909 1.993076 8.740617 
0.179949 2.070094 9.186099 
-1.319749 2.113090 9.430494 
-2.839593 2.139611 9.505396 
-4.363447 2.154107 9.504347 
-5.884885 2.159265 9.489544 
-7.409903 2.165731 9.470326 
-8.935261 2.175494 9.431205 
-10.444222 2.175602 9.323818 
-11.947853 2.163280 9.075469 
-13.428934 2.139889 8.702073 
-14.893590 2.104984 8.300182 
-16.384466 2.063627 7.979905 
-17.896753 2.032949 7.789352 
-19.404102 2.023216 7.678259 
-20.928146 2.017911 7.570373 
-22.450410 2.010946 7.463693 
-23.970690 2.027403 7.402862 
-25.494982 2.069212 7.409695 
-26.994751 2.110762 7.595716 
-28.458475 2.125636 8.007521 
-29.892104 2.122448 8.535884 
-31.328177 2.126915 9.021651 
-32.806746 2.128226 9.342108 
-34.324306 2.141541 9.451341 
-35.857247 2.160888 9.456922 
-37.372541 2.170272 9.466238 
-38.895021 2.176588 9.475556 
-40.420502 2.181292 9.481707 
-41.898415 2.184286 9.485426 
-43.565667 2.186479 9.487641 
47.627109 2.826438 9.412088 
46.214387 2.830169 9.407977 
44.568444 2.834431 9.403179 
42.972341 2.838092 9.398506 
41.534707 2.839923 9.394317 
40.005841 2.842017 9.389380 
38.475355 2.846217 9.384882 
36.951396 2.850933 9.377160 
35.427691 2.851839 9.357667 
33.903819 2.846841 9.331427 
32.386086 2.833540 9.300191 
30.858052 2.811704 9.258044 
29.331221 2.788545 9.192078 
27.819363 2.747365 9.071497 
26.328603 2.639970 8.812767 
24.919297 2.489827 8.297343 
23.579543 2.300245 7.582586 
22.310825 2.073686 6.760795 
21.103394 1.828321 5.896993 
19.900023 1.578433 4.979740 
18.711876 1.329891 4.066139 
17.471382 1.061422 3.188327 
16.160214 0.816388 2.448387 
14.753256 0.648301 1.958896 
13.242286 0.613008 1.866542 
11.790692 0.729137 2.186067 
10.439091 0.926989 2.843767 
9.168374 1.158974 3.699227 
7.974175 1.407011 4.600126 
6.764389 1.678878 5.496697 
5.543228 1.951434 6.357867 
4.290747 2.200857 7.206838 
2.996291 2.417587 7.970448 
1.627909 2.586491 8.588699 
0.179949 2.692714 9.026704 
-1.319749 2.751141 9.267149 
-2.839593 2.783542 9.340545 
-4.363447 2.799811 9.339043 
-5.884885 2.805168 9.324189 
-7.409903 2.810926 9.305153 
-8.935261 2.818406 9.266616 
-10.444222 2.812042 9.160885 
-11.947853 2.785044 8.916294 
-13.428934 2.738328 8.548868 
-14.893590 2.676580 8.153850 
-16.384466 2.613406 7.839158 
-17.896753 2.568110 7.652348 
-19.404102 2.549105 7.543628 
-20.928146 2.536778 7.437540 
-22.450410 2.524316 7.332268 
-23.970690 2.537933 7.272163 
-25.494982 2.580995 7.278675 
-26.994751 2.632861 7.462056 
-28.458475 2.670669 7.867989 
-29.892104 2.699816 8.388074 
-31.328177 2.738244 8.865147 
-32.806746 2.763242 9.179540 
-34.324306 2.786562 9.286211 
-35.857247 2.808417 9.291150 
-37.372541 2.818777 9.300217 
-38.895021 2.825600 9.309406 
-40.420502 2.830540 9.315496 
-41.898415 2.833584 9.319201 
-43.565667 2.835725 9.321430 
47.627109 3.482628 9.220375 
46.214387 3.486318 9.216277 
44.568444 3.490518 9.211496 
42.972341 3.494057 9.206859 
41.534707 3.495674 9.202732 
40.005841 3.497524 9.197867 
38.475355 3.501559 9.193417 
36.951396 3.506085 9.185750 
35.427691 3.506502 9.166400 
33.903819 3.500722 9.140389 
32.386086 3.486272 9.109489 
30.858052 3.462599 9.067878 
29.331221 3.434891 9.003242 
27.819363 3.381843 8.886128 
26.328603 3.250124 8.634504 
24.919297 3.062909 8.129911 
23.579543 2.825582 7.429104 
22.310825 2.543475 6.623542 
21.103394 2.238420 5.777179 
19.900023 1.925671 4.878291 
18.711876 1.614746 3.982916 
17.471382 1.284529 3.123144 
16.160214 0.985997 2.398834 
14.753256 0.781645 1.919938 
13.242286 0.738772 1.829799 
11.790692 0.878780 2.142348 
10.439091 1.122597 2.786618 
9.168374 1.412798 3.625070 
7.974175 1.723406 4.507688 
6.764389 2.059828 5.385399 
5.543228 2.395124 6.228239 
4.290747 2.704471 7.059702 
2.996291 2.974098 7.807857 
1.627909 3.185469 8.413702 
0.179949 3.321172 8.843094 
-1.319749 3.395173 9.078988 
-2.839593 3.433509 9.150651 
-4.363447 3.451569 9.148625 
-5.884885 3.457125 9.133713 
-7.409903 3.462169 9.114885 
-8.935261 3.467344 9.077022 
-10.444222 3.454449 8.973200 
-11.947853 3.412636 8.732936 
-13.428934 3.342377 8.372390 
-14.893590 3.253533 7.985287 
-16.384466 3.168338 7.677029 
-17.896753 3.108287 7.494529 
-19.404102 3.079924 7.388544 
-20.928146 3.060508 7.284527 
-22.450410 3.042499 7.180875 
-23.970690 3.053249 7.121609 
-25.494982 3.097576 7.127751 
-26.994751 3.159855 7.308089 
-28.458475 3.220811 7.707259 
-29.892104 3.282597 8.217809 
-31.328177 3.355303 8.684867 
-32.806746 3.404210 8.992274 
-34.324306 3.437630 9.095995 
-35.857247 3.462016 9.100195 
-37.372541 3.473360 9.108973 
-38.895021 3.480696 9.118013 
-40.420502 3.485874 9.124033 
-41.898415 3.488967 9.127724 
-43.565667 3.491057 9.129968 
47.627109 4.076353 8.999763 
46.214387 4.080006 8.995677 
44.568444 4.084149 8.990918 
42.972341 4.087578 8.986322 
41.534707 4.089003 8.982267 
40.005841 4.090631 8.977484 
38.475355 4.094517 8.973089 
36.951396 4.098872 8.965486 
35.427691 4.098846 8.946300 
33.903819 4.092358 8.920552 
32.386086 4.076868 8.890039 
30.858052 4.051533 8.849045 
29.331221 4.019708 8.785939 
27.819363 3.955923 8.672814 
26.328603 3.802195 8.429369 
24.919297 3.581438 7.937239 
23.579543 3.300911 7.252484 
22.310825 2.968542 6.465598 
[...]
POINT_DATA 6500
SCALARS sample_scalars float 1
LOOKUP_TABLE my_table
3.639095
2.229621
0.606897
0.193287
0.397519
0.107225
0.406972
0.172218
0.328925
0.261661
0.267037
0.360193
0.247145
0.359225
0.198161
0.515131
0.221676
0.550410
0.287542
0.468864
0.417423
0.376107
0.341528
0.398824
0.184711
0.320600
0.160580
0.365119
0.331850
0.207045
0.458010
0.215683
0.487983
0.137312
0.471684
0.135520
0.532811
0.125845
0.461047
0.181687
0.405035
0.249509
0.418821
0.269329
0.360970
0.269753
0.454962
0.173432
0.419059
0.445252
0.503101
0.496444
0.390276
0.486998
0.289667
0.360280
0.197199
0.426379
0.185090
0.485143
0.130931
0.512254
0.377874
0.437479
3.638390
2.228610
0.603764
0.182605
0.392868
0.090588
0.403670
0.166410
0.326577
0.258397
0.261921
0.354164
0.237348
0.355155
0.187689
0.513305
0.222958
0.550853
0.295152
0.472849
0.428296
0.382860
0.348650
0.401633
0.188898
0.324938
0.163092
0.368836
0.329803
0.208012
0.455105
0.214219
0.483697
0.120250
0.463594
0.098494
0.525367
0.095669
0.454482
0.167502
0.401266
0.266179
0.451612
0.274331
0.357985
0.209166
0.480520
0.149976
0.405734
0.409026
0.510907
0.503556
0.417428
0.473330
0.283938
0.359505
0.246443
0.419122
0.168384
0.479895
0.112548
0.508338
0.372987
0.434348
3.638552
2.228796
0.604120
0.191098
0.396539
0.103848
0.406181
0.170533
0.328092
0.260583
0.265931
0.359370
0.246159
0.357265
0.196402
0.510748
0.219458
0.550179
0.289275
0.469032
0.425592
0.379570
0.347691
0.400379
0.185872
0.322826
0.153472
0.366220
0.330064
0.207008
0.456193
0.215197
0.488411
0.137540
0.473396
0.137353
0.532806
0.124843
0.460642
0.180788
0.404721
0.252948
0.427073
0.211697
0.370833
0.154985
0.449216
0.183304
0.402518
0.367603
0.455833
0.513624
0.357914
0.437289
0.216692
0.383249
0.215082
0.426099
0.182750
0.484142
0.127119
0.511315
0.376643
0.434908
3.638531
2.228841
0.604620
0.183480
0.393071
0.090410
0.403275
0.164303
0.324818
0.255529
0.259057
0.352561
0.235147
0.355574
0.191426
0.514345
0.225059
0.548928
0.299129
0.470802
0.438265
0.385045
0.355815
0.402821
0.188824
0.326379
0.150237
0.369524
0.325096
0.206426
0.449099
0.211249
0.481083
0.121716
0.466153
0.113437
0.527622
0.102060
0.455167
0.167081
0.399169
0.256496
0.440071
0.220011
0.374493
0.133877
0.438652
0.203682
0.409023
0.349209
0.427781
0.485841
0.336470
0.428707
0.228533
0.371678
0.240381
0.419810
0.167694
0.479303
0.109343
0.507527
0.371781
0.433238
3.640012
2.231325
0.613987
0.182217
0.392480
0.087748
0.402909
0.163715
0.323501
0.251048
0.250114
0.342378
0.216970
0.360512
0.197227
0.532801
0.247720
0.546826
0.322202
0.473819
0.460110
0.393685
0.369164
0.406961
0.193949
0.332192
0.143585
0.376574
0.312713
0.207535
0.431538
0.206235
0.463887
0.097498
0.453435
0.077231
0.522225
0.068654
0.448685
0.147523
0.390209
0.255397
0.447143
0.232244
0.375403
0.126065
0.436179
0.203008
0.403836
0.321746
0.395691
0.460458
0.319755
0.418154
0.247206
0.354342
0.265433
0.411205
0.146028
0.473412
0.085187
0.503510
0.366807
0.429271
3.641595
2.233874
0.623051
0.184856
0.393387
0.090039
0.403032
0.162464
0.321077
0.244900
0.240508
0.333264
0.200520
0.365361
0.209271
0.549528
0.265646
0.544064
0.337726
0.473348
0.474849
0.397806
0.378406
0.409411
0.196440
0.335325
0.131868
0.381026
0.301840
0.207636
0.414833
0.200034
0.449303
0.082419
0.447149
0.074564
0.521843
0.054520
0.445607
0.133365
0.381913
0.236358
0.426325
0.208591
0.391108
0.150969
0.424596
0.210199
0.395236
0.289801
0.360400
0.418822
0.299896
0.400991
0.233223
0.354083
0.250750
0.405768
0.128337
0.468651
0.056729
0.499779
0.361915
0.425220
3.643899
2.237430
0.634884
0.213099
0.406653
0.134117
0.413802
0.183556
0.329286
0.252516
0.247248
0.338723
0.209850
0.377880
0.245880
0.565334
0.283766
0.545614
0.343213
0.469703
0.477117
0.394882
0.380379
0.409281
0.195690
0.334460
0.117648
0.382489
0.302737
0.214227
0.410833
0.205721
0.451932
0.128677
0.463763
0.159905
0.538700
0.129423
0.457934
0.162124
0.387322
0.207026
0.371178
0.160143
0.447195
0.240050
0.411654
0.257806
0.397510
0.261678
0.321325
0.382573
0.256717
0.375403
0.180963
0.392632
0.180390
0.416231
0.150260
0.473770
0.087238
0.503855
0.367333
0.429730
3.645527
2.240026
0.643755
0.234224
0.417840
0.164142
0.424034
0.204167
0.339815
0.264333
0.258008
0.346064
0.221200
0.388862
0.268861
0.575686
0.298244
0.548974
0.350982
0.470490
0.483407
0.396405
0.384415
0.410354
0.197069
0.335785
0.112904
0.385326
0.305723
0.221871
0.410662
0.214838
0.455963
0.156282
0.474871
0.195797
0.549617
0.163396
0.467320
0.184009
0.394762
0.207033
0.355794
0.160235
0.476525
0.277528
0.413405
0.269721
0.392414
0.239729
0.296586
0.364701
0.256008
0.368064
0.181388
0.410656
0.162006
0.424742
0.168611
0.479489
0.114219
0.509231
0.374729
0.436117
3.647514
2.243204
0.654516
0.259139
0.432051
0.196882
0.437332
0.229259
0.354042
0.280541
0.273106
0.356613
0.236965
0.402649
0.294916
0.587710
0.315269
0.554026
0.360142
0.472399
0.490037
0.398440
0.388541
0.411642
0.199028
0.337455
0.110853
0.388932
0.310887
0.231968
0.412625
0.227536
0.462520
0.186432
0.488583
0.232352
0.562898
0.198494
0.479307
0.209989
0.405458
0.213613
0.344063
0.172941
0.454261
0.269686
0.414738
0.281598
0.388208
0.223192
0.276992
0.352004
0.269336
0.364095
0.194288
0.426719
0.150594
0.435790
0.191173
0.487479
0.144204
0.516833
0.385097
0.445140
3.649876
2.246991
0.667179
0.286982
0.449077
0.231345
0.453511
0.257684
0.371655
0.300566
0.291988
0.370172
0.256422
0.419079
0.323380
0.601434
0.334602
0.560747
0.370730
0.475469
0.497081
0.401033
0.392800
0.413163
0.201582
0.339496
0.111682
0.393332
0.318056
0.244265
0.416635
0.243337
0.471450
0.218127
0.504657
0.269292
0.578384
0.234271
0.493742
0.238819
0.419212
0.225891
0.335425
0.191470
0.436434
0.239745
0.415273
0.299845
0.390438
0.222882
0.270483
0.346971
0.298139
0.366838
0.218673
0.441214
0.146682
0.449170
0.216763
0.497695
0.175868
0.526637
0.398304
0.456731
3.652606
2.251373
0.681605
0.317040
0.468656
0.266946
0.472325
0.288553
0.392285
0.323834
0.314140
0.386579
0.279024
0.437881
0.353635
0.616635
0.355788
0.569118
0.382559
0.479703
0.504461
0.404166
0.397147
0.414904
0.204691
0.341887
0.115434
0.398471
0.327184
0.258466
0.422798
0.261780
0.482772
0.250895
0.522949
0.306520
0.595937
0.270561
0.510488
0.269746
0.435860
0.243069
0.329837
0.211947
0.420990
0.215222
0.416158
0.272310
0.404288
0.248363
0.286121
0.354704
0.343108
0.380116
0.253973
0.441914
0.149550
0.464763
0.244652
0.510112
0.208700
0.538619
0.414199
0.470806
3.655692
2.256328
0.697626
0.348744
0.490486
0.303299
0.493487
0.321193
0.415528
0.349776
0.339025
0.405597
0.304222
0.458752
0.355567
0.611978
0.378413
0.579085
0.395433
0.485083
0.512097
0.407815
0.401536
0.416844
0.208306
0.344603
0.121917
0.404288
0.334019
0.274266
0.431159
0.282403
0.496439
0.284411
0.541494
0.305715
0.609034
0.307213
0.529359
0.302211
0.455167
0.264290
0.327455
0.232653
0.406832
0.196849
0.419463
0.247020
0.431846
0.298084
0.326282
0.381291
0.403910
0.407698
0.299229
0.425115
0.158568
0.482438
0.274282
0.524647
0.242379
0.552701
0.432566
0.487219
3.655644
2.257679
0.707172
0.374824
0.512591
0.340163
0.516712
0.355132
0.440992
0.377879
0.366138
0.426924
0.331485
0.481433
0.325111
0.596534
0.366001
0.590566
0.409256
0.491588
0.519983
0.411981
0.405964
0.418980
0.209833
0.347637
0.130745
0.405411
0.323414
0.276233
0.441606
0.304781
0.512268
0.294967
0.521029
0.268556
0.590119
0.308774
0.548433
0.335783
0.476835
0.288667
0.328313
0.252987
0.393596
0.186500
0.427977
0.229683
0.430038
0.362904
0.384494
0.425887
0.475469
0.451167
0.353299
0.408466
0.173494
0.502030
0.305207
0.541169
0.276676
0.568767
0.453153
0.505784
3.652792
2.253004
0.691901
0.342907
0.489497
0.307646
0.501775
0.346359
0.449986
0.404630
0.395060
0.450260
0.360366
0.474661
0.296350
0.582485
0.345471
0.580070
0.414032
0.499206
0.528185
0.416693
0.410472
0.420118
0.206509
0.351005
0.141464
0.400157
0.314704
0.260535
0.443351
0.309139
0.499263
0.260760
0.502557
0.231758
0.573130
0.271792
0.527579
0.321838
0.487308
0.315423
0.332284
0.273643
0.381301
0.184740
0.443999
0.224683
0.413198
0.375979
0.451423
0.481725
0.550581
0.507421
0.413971
0.391475
0.194416
0.506482
0.337110
0.559536
0.311456
0.586693
0.475722
0.526318
3.650297
2.248903
0.678221
0.312281
0.468312
0.272192
0.480430
0.313747
0.424561
0.375423
0.373412
0.438131
0.343250
0.454157
0.269910
0.570067
0.326773
0.569749
0.404060
0.504583
0.536742
0.421968
0.415082
0.418625
0.203708
0.351221
0.133577
0.395611
0.307977
0.246390
0.428594
0.286332
0.482096
0.226847
0.486268
0.195492
0.558243
0.234868
0.508489
0.287707
0.463669
0.344089
0.339336
0.297136
0.370338
0.191537
0.468559
0.233379
0.404824
0.363217
0.460581
0.540120
0.621953
0.570367
0.477992
0.374997
0.221237
0.485655
0.312721
0.553649
0.303218
0.582496
0.469526
0.519512
3.648172
2.245398
0.666296
0.283422
0.449344
0.237545
0.461261
0.282536
0.401088
0.347716
0.345108
0.414315
0.312705
0.435598
0.246554
0.559474
0.310337
0.560941
0.395308
0.497428
0.545553
0.427755
0.417580
0.417349
0.201474
0.349263
0.122411
0.391829
0.303289
0.234099
0.415408
0.264959
0.466795
0.193377
0.472331
0.160000
0.545604
0.198031
0.491378
0.254242
0.441881
0.372872
0.349940
0.325727
0.361961
0.205631
0.501288
0.253025
0.404786
0.360246
0.453399
0.594599
0.684692
0.633142
0.541573
0.361453
0.252857
0.466348
0.279826
0.535309
0.268032
0.564905
0.447483
0.499664
3.646400
2.242465
0.656132
0.256909
0.432877
0.204108
0.444549
0.253256
0.379957
0.321962
0.318466
0.392209
0.283144
0.419203
0.227084
0.550629
0.296363
0.553739
0.387735
0.491275
0.548700
0.431771
0.416886
0.416272
0.199796
0.347615
0.113124
0.388786
0.300828
0.223949
0.404124
0.245451
0.453705
0.160715
0.461026
0.125930
0.535380
0.161401
0.476496
0.221860
0.422317
0.340689
0.364661
0.329527
0.357980
0.224943
0.498435
0.279119
0.411231
0.364270
0.451442
0.642579
0.733942
0.689421
0.600784
0.353095
0.287830
0.448875
0.247284
0.518583
0.232645
0.548959
0.427181
0.481584
3.644977
2.240098
0.647790
0.233587
0.419233
0.172661
0.430617
0.226738
0.361648
0.298771
0.294072
0.372239
0.255091
0.405258
0.212489
0.543532
0.285143
0.548225
0.381372
0.486178
0.547759
0.429349
0.416210
0.415387
0.198674
0.346275
0.106266
0.386479
0.300678
0.216245
0.395012
0.228360
0.443121
0.129593
0.452590
0.094829
0.527721
0.125278
0.464106
0.191257
0.405391
0.309343
0.383946
0.303554
0.360485
0.248662
0.482694
0.308215
0.422093
0.372311
0.452034
0.637893
0.732839
0.690973
0.637782
0.351292
0.324733
0.433584
0.215447
0.503717
0.197157
0.534878
0.408975
0.465561
3.643908
2.238307
0.641371
0.214564
0.408733
0.144621
0.419783
0.204162
0.346680
0.278890
0.272648
0.354861
0.229242
0.394079
0.203774
0.538262
0.277032
0.544458
0.376321
0.482197
0.547047
0.427383
0.415566
0.414701
0.198115
0.345253
0.102335
0.384927
0.302797
0.211255
0.388229
0.214327
0.435232
0.101487
0.447164
0.070539
0.522726
0.090338
0.454440
0.163550
0.391505
0.279254
0.408068
0.275418
0.371352
0.276536
0.468684
0.338051
0.435850
0.382642
0.453647
0.621308
0.724244
0.690556
0.633854
0.356129
0.362280
0.420800
0.184857
0.490954
0.161729
0.522885
0.393249
0.451894
3.643210
2.237123
0.637037
0.201150
0.401667
0.122504
0.412340
0.187088
0.335580
0.263173
0.255033
0.340526
0.206491
0.386009
0.201697
0.535008
0.272457
0.542464
0.372785
0.479401
0.546669
0.425936
0.415013
0.414235
0.198147
0.344584
0.101619
0.384177
0.306989
0.209173
0.383765
0.204019
0.430063
0.079529
0.444749
0.061177
0.520423
0.058602
0.447675
0.140485
0.381004
0.251114
0.434610
0.246615
0.390971
0.307105
0.457658
0.367331
0.451639
0.394847
0.456016
0.598858
0.706318
0.685671
0.627465
0.366542
0.331300
0.410785
0.156379
0.480518
0.126658
0.513190
0.380400
0.440879
3.642882
2.236545
0.634830
0.194487
0.398209
0.109921
0.408473
0.177122
0.328757
0.252442
0.242123
0.329684
0.188059
0.381257
0.206331
0.533782
0.271561
0.542248
0.370813
0.477818
0.546636
0.425026
0.414556
0.413991
0.198759
0.344272
0.104160
0.384226
0.313112
0.210053
0.381692
0.198028
0.427695
0.069669
0.445348
0.072394
0.520808
0.038684
0.443940
0.124688
0.374193
0.226139
0.403173
0.220845
0.417865
0.338091
0.450271
0.395455
0.469225
0.409666
0.460130
0.570207
0.678121
0.674535
0.616711
0.381167
0.298360
0.403761
0.131530
0.472607
0.092577
0.505965
0.370779
0.432761
3.642905
2.236543
0.634667
0.195168
0.398408
0.110032
0.408243
0.175399
0.326460
0.247358
0.234755
0.322772
0.175492
0.379875
0.217035
0.534403
0.274161
0.543804
0.370293
0.477441
0.546864
0.424620
0.414144
0.413944
0.199903
0.344283
0.109740
0.385013
0.321099
0.213797
0.382183
0.196751
0.428295
0.076725
0.448986
0.097197
0.523795
0.048396
0.443320
0.119168
0.371328
0.206094
0.373927
0.202137
0.449256
0.367037
0.446512
0.350926
0.483441
0.413153
0.468296
0.538111
0.641676
0.656215
0.600142
0.398836
0.267332
0.399917
0.112948
0.467398
0.061464
0.501350
0.364682
0.427738
3.643270
2.237102
0.636500
0.203052
0.402224
0.122703
0.411628
0.182105
0.328773
0.248286
0.233510
0.320110
0.170230
0.381868
0.232799
0.536755
0.280029
0.547099
0.371164
0.478263
0.547317
0.424708
0.413756
0.414081
0.198174
0.344603
0.117900
0.386499
0.330793
0.220204
0.385277
0.200273
0.431887
0.097002
0.455574
0.127737
0.529274
0.077165
0.445826
0.125320
0.372525
0.192901
0.348304
0.193595
0.452623
0.339316
0.446192
0.303120
0.443805
0.353638
0.430796
0.506819
0.600670
0.631922
0.576789
0.418627
0.238593
0.399361
0.104246
0.465025
0.041275
0.499454
0.362333
0.425953
3.643979
2.238228
0.640331
0.217314
0.409537
0.144616
0.418525
0.196356
0.335603
0.255180
0.238517
0.321837
0.172993
0.387204
0.252550
0.540826
0.288957
0.552068
0.373460
0.480282
0.548038
0.425312
0.413415
0.414405
0.192664
0.345233
0.128074
0.388670
0.341936
0.228994
0.390825
0.208325
0.438314
0.124019
0.464894
0.160519
0.537178
0.110877
0.451380
0.141576
0.377729
0.188053
0.327554
0.195699
0.421148
0.287889
0.449429
0.256093
0.408358
0.298300
0.373100
0.480080
0.558736
0.604095
0.547422
0.439874
0.212781
0.402090
0.107966
0.465571
0.048836
0.500342
0.363852
0.427488
3.645044
2.239938
0.646198
0.236789
0.420155
0.172261
0.428762
0.216675
0.346696
0.267605
0.249424
0.327900
0.183426
0.395803
0.275335
0.546669
0.300737
0.558621
0.377270
0.483495
0.549122
0.426472
0.413175
0.411472
0.187691
0.345988
0.139724
0.391532
0.354222
0.239855
0.398559
0.220376
0.447293
0.154094
0.476644
0.194142
0.547327
0.145974
0.459836
0.164894
0.386735
0.191927
0.312505
0.206256
0.397311
0.238420
0.456483
0.212733
0.379828
0.252968
0.325472
0.460504
0.519219
0.575157
0.513874
0.461985
0.190849
0.408002
0.123072
0.469064
0.076561
0.504044
0.369249
0.432352
3.646454
2.242215
0.653990
0.260228
0.433787
0.203215
0.442060
0.241458
0.361624
0.284818
0.265513
0.338098
0.200398
0.407415
0.300320
0.554126
0.314929
0.566675
0.382481
0.487859
0.550532
0.428167
0.413017
0.408414
0.183312
0.341490
0.148276
0.388914
0.367502
0.252455
0.408370
0.235781
0.458686
0.185673
0.490625
0.228123
0.559557
0.181577
0.471020
0.192701
0.399280
0.203708
0.303455
0.222655
0.380754
0.191527
0.467650
0.177456
0.360417
0.223394
0.292570
0.447524
0.484615
0.547328
0.478090
0.441036
0.174039
0.416953
0.146155
0.475463
0.110244
0.510512
0.378374
0.440448
3.648188
2.245025
0.663528
0.286540
0.450085
0.236036
0.458081
0.269356
0.379863
0.305950
0.285887
0.352090
0.222469
0.421692
0.326830
0.562947
0.331020
0.576133
0.388892
0.493302
0.552178
0.430344
0.412397
0.405600
0.179542
0.337347
0.140151
0.381551
0.365077
0.266472
0.420192
0.253879
0.472381
0.218040
0.506656
0.262240
0.573695
0.217360
0.484719
0.223292
0.415036
0.221892
0.300366
0.242949
0.370889
0.148446
0.482800
0.156551
0.351278
0.212250
0.276050
0.398829
0.449368
0.522425
0.442076
0.413968
0.163610
0.428738
0.174107
0.484660
0.145810
0.519638
0.390954
0.451587
3.650234
2.248345
0.674672
0.314891
0.468693
0.269912
0.476474
0.299385
0.400889
0.330182
0.309654
0.369431
0.248268
0.438308
0.351728
0.550529
0.345786
0.586877
0.396374
0.499754
0.554030
0.432976
0.406974
0.403013
0.176377
0.333541
0.134116
0.374893
0.362710
0.279075
0.433836
0.274066
0.488152
0.250774
0.524488
0.296302
0.589533
0.253125
0.500679
0.255584
0.433604
0.244841
0.302924
0.266001
0.366936
0.112116
0.469554
0.152126
0.350508
0.212973
0.271664
0.370107
0.402298
0.501527
0.407877
0.391167
0.160329
0.443084
0.204933
0.496496
0.182138
0.531274
0.406650
0.465531
3.652591
2.252175
0.687352
0.344686
0.489283
0.304389
0.496916
0.330877
0.424229
0.356826
0.336044
0.389642
0.276702
0.456988
0.322607
0.530379
0.319091
0.587255
0.392388
0.502861
0.556139
0.433129
0.401577
0.400651
0.173826
0.330078
0.130416
0.368958
0.362037
0.264028
0.448990
0.295835
0.505661
0.283593
0.543807
0.330127
0.606847
0.288727
0.518622
0.288893
0.454562
0.271161
0.310565
0.291249
0.368062
0.089198
0.457566
0.153210
0.351225
0.212021
0.270884
0.366158
0.381689
0.484415
0.377776
0.373099
0.164037
0.459678
0.237489
0.510783
0.218844
0.545256
0.425109
0.482029
3.654044
2.255114
0.698950
0.373029
0.509931
0.337298
0.518331
0.363401
0.449488
0.385351
0.364462
0.412285
0.307009
0.477499
0.295151
0.511581
0.293424
0.577679
0.376181
0.494650
0.549885
0.427470
0.396244
0.398525
0.171902
0.326978
0.129152
0.363780
0.362940
0.250551
0.452931
0.318618
0.522938
0.304945
0.548881
0.312387
0.606278
0.324107
0.538298
0.322824
0.477530
0.299853
0.322650
0.318038
0.373558
0.084060
0.452671
0.149831
0.350048
0.212137
0.278426
0.392300
0.395132
0.465309
0.353969
0.359751
0.173641
0.478232
0.271157
0.527335
0.255793
0.561423
0.446004
0.500838
3.650840
2.249849
0.681516
0.341266
0.487061
0.301377
0.495451
0.333569
0.440673
0.398268
0.394440
0.436982
0.338699
0.473909
0.269677
0.494346
0.269090
0.569586
0.361027
0.487550
0.542298
0.422351
0.391035
0.396648
0.170616
0.324266
0.130248
0.359394
0.365213
0.238814
0.443861
0.295950
0.508852
0.274565
0.533394
0.284121
0.590688
0.299141
0.540589
0.335805
0.485818
0.330264
0.338639
0.330500
0.382557
0.089767
0.452062
0.158641
0.362385
0.262798
0.333661
0.444841
0.448650
0.460284
0.338827
0.350585
0.187610
0.498515
0.305575
0.545944
0.292880
0.579578
0.468991
0.521688
3.647989
2.245156
0.665622
0.310868
0.466173
0.266095
0.474597
0.300985
0.415371
0.368566
0.374002
0.447514
0.356596
0.451688
0.246560
0.478640
0.246221
0.562999
0.346912
0.481569
0.534982
0.417752
0.385914
0.395000
0.169929
0.321918
0.133591
0.355764
0.368825
0.228989
0.436699
0.274864
0.496787
0.245338
0.519853
0.257569
0.576922
0.266008
0.521414
0.302719
0.463177
0.361909
0.357995
0.304704
0.394035
0.094739
0.452928
0.232493
0.432293
0.423426
0.487041
0.585379
0.549882
0.467905
0.335597
0.344608
0.204601
0.508801
0.340476
0.566375
0.326400
0.592972
0.480452
0.527739
3.645477
2.241015
0.651300
0.282192
0.447492
0.231644
0.455998
0.269982
0.392292
0.340730
0.345071
0.422230
0.324648
0.431318
0.226326
0.464450
0.225038
0.557944
0.333849
0.476714
0.527891
0.413657
0.380848
0.393564
0.169802
0.319913
0.138962
0.352857
0.373732
0.221255
0.431593
0.255718
0.486939
0.217686
0.508418
0.233252
0.565083
0.233897
0.504224
0.270819
0.442793
0.358667
0.380135
0.281614
0.406910
0.092314
0.456315
0.390804
0.594716
0.683961
0.737322
0.769536
0.695120
0.488311
0.347912
0.340590
0.223756
0.488331
0.306456
0.547924
0.288966
0.573378
0.456297
0.506079
3.643300
2.237422
0.638629
0.255741
0.431262
0.198362
0.439895
0.241100
0.371816
0.315233
0.318216
0.398993
0.294095
0.413049
0.209609
0.451843
0.205927
0.554417
0.321929
0.472996
0.521033
0.410072
0.375841
0.392331
0.170196
0.318240
0.146044
0.350655
0.379804
0.215752
0.428577
0.238932
0.479407
0.192191
0.499181
0.211793
0.555245
0.203208
0.489206
0.240542
0.424970
0.330116
0.404501
0.261414
0.419258
0.086326
0.472122
0.621884
0.847326
1.010860
1.061331
1.007333
0.882796
0.525130
0.377702
0.337392
0.244751
0.469709
0.272131
0.529069
0.251638
0.555688
0.434139
0.486451
3.641462
2.234384
0.627735
0.232151
0.417696
0.166771
0.426504
0.215066
0.354331
0.292625
0.293958
0.378153
0.265371
0.397166
0.197020
0.440984
0.189469
0.552365
0.311356
0.470421
0.514499
0.407037
0.370944
0.391304
0.169388
0.316907
0.154448
0.349154
0.386805
0.212524
0.427510
0.224924
0.474121
0.169548
0.492102
0.193775
0.547406
0.174434