# vtk DataFile Version 2.0
Comment goes here
ASCII
DATASET UNSTRUCTURED_GRID
POINTS 6500 float
47.627109 1.061886 9.741985 
46.214797 1.064844 9.749481 
44.569255 1.068291 9.757641 
42.973388 1.071540 9.762801 
41.536286 1.073762 9.760250 
40.007812 1.076035 9.752608 
38.477730 1.079112 9.743037 
36.954167 1.082339 9.731719 
35.430769 1.083497 9.719268 
33.907093 1.079780 9.707040 
32.389435 1.068567 9.695208 
30.861365 1.050534 9.679331 
29.335553 1.040768 9.616506 
27.827935 1.034044 9.443994 
26.348719 0.989458 9.116911 
24.940737 0.938628 8.567940 
23.597372 0.881275 7.833347 
22.322411 0.809616 6.988534 
21.106341 0.728888 6.101799 
19.897205 0.647799 5.155640 
18.706033 0.563146 4.206457 
17.466882 0.457612 3.291536 
16.160281 0.357694 2.509635 
14.762303 0.289496 1.972070 
13.254622 0.271039 1.846453 
11.811601 0.322892 2.202921 
10.460398 0.401451 2.898436 
9.188237 0.479529 3.781018 
7.999777 0.556145 4.724116 
6.798640 0.647392 5.678613 
5.588477 0.743095 6.585717 
4.328381 0.824947 7.462418 
3.037416 0.896960 8.261272 
1.678325 0.957248 8.926931 
0.230177 0.995271 9.386504 
-1.268576 1.020135 9.627746 
-2.787635 1.039261 9.716515 
-4.311221 1.051264 9.737415 
-5.832207 1.056798 9.732946 
-7.357205 1.064999 9.716741 
-8.882084 1.078530 9.676082 
-10.389076 1.086270 9.557805 
-11.890260 1.089847 9.289746 
-13.369549 1.097939 8.895326 
-14.835293 1.107269 8.495666 
-16.336485 1.101531 8.221588 
-17.852024 1.090887 8.054639 
-19.359601 1.093944 7.935450 
-20.883717 1.104127 7.837697 
-22.407384 1.110970 7.763470 
-23.927828 1.131265 7.713466 
-25.450914 1.169243 7.743840 
-26.949145 1.190634 7.958679 
-28.417953 1.165935 8.365299 
-29.864745 1.110485 8.858369 
-31.316349 1.061291 9.312096 
-32.805312 1.023200 9.576006 
-34.326847 1.021255 9.660303 
-35.859626 1.038443 9.675964 
-37.374475 1.045804 9.690370 
-38.896547 1.050607 9.700349 
-40.421653 1.054141 9.705512 
-41.899201 1.056142 9.707188 
-43.566086 1.057404 9.707273 
47.627109 1.657653 9.634835 
46.214797 1.660438 9.642362 
44.569255 1.663677 9.650559 
42.973388 1.666700 9.655760 
41.536286 1.668702 9.653250 
40.007812 1.670685 9.645659 
38.477730 1.673384 9.636156 
36.954167 1.676149 9.624921 
35.430769 1.676703 9.612579 
33.907093 1.672146 9.600502 
32.389435 1.659726 9.588887 
30.861365 1.639841 9.573343 
29.335553 1.626131 9.511227 
27.827935 1.609075 9.340574 
26.348719 1.542240 9.017492 
24.940737 1.457895 8.474549 
23.597372 1.357802 7.747643 
22.322411 1.236415 6.911773 
21.106341 1.101841 6.034723 
19.897205 0.963437 5.098872 
18.706033 0.821469 4.159997 
17.466882 0.659471 3.255232 
16.160281 0.511292 2.482010 
14.762303 0.410591 1.950291 
13.254622 0.384544 1.826039 
11.811601 0.457808 2.178656 
10.460398 0.578503 2.866593 
9.188237 0.709711 3.739619 
7.999777 0.842397 4.672633 
6.798640 0.990989 5.616817 
5.588477 1.142126 6.513950 
4.328381 1.277787 7.380974 
3.037416 1.397603 8.171231 
1.678325 1.497334 8.829796 
0.230177 1.564109 9.284197 
-1.268576 1.604720 9.522607 
-2.787635 1.629831 9.610300 
-4.311221 1.643572 9.630888 
-5.832207 1.649420 9.626362 
-7.357205 1.657116 9.610248 
-8.882084 1.668642 9.569949 
-10.389076 1.670146 9.452794 
-11.890260 1.659294 9.187330 
-13.369549 1.645076 8.796922 
-14.835293 1.629368 8.401766 
-16.336485 1.602882 8.131420 
-17.852024 1.577857 7.967057 
-19.359601 1.571893 7.849490 
-20.883717 1.576072 7.752816 
-22.407384 1.578525 7.679380 
-23.927828 1.596070 7.629870 
-25.450914 1.634815 7.660106 
-26.949145 1.664853 7.873390 
-28.417953 1.660702 8.276314 
-29.864745 1.635553 8.763935 
-31.316349 1.618631 9.211858 
-32.805312 1.602690 9.471784 
-34.326847 1.610215 9.554378 
-35.859626 1.630004 9.569571 
-37.374475 1.638201 9.583826 
-38.896547 1.643372 9.593739 
-40.421653 1.647008 9.598884 
-41.899201 1.648920 9.600576 
-43.566086 1.649984 9.600696 
47.627109 2.193392 9.505834 
46.214797 2.196021 9.513399 
44.569255 2.199072 9.521641 
42.973388 2.201893 9.526891 
41.536286 2.203697 9.524428 
40.007812 2.205418 9.516901 
38.477730 2.207779 9.507479 
36.954167 2.210127 9.496344 
35.430769 2.210139 9.484133 
33.907093 2.204826 9.472238 
32.389435 2.191321 9.460884 
30.861365 2.169771 9.445741 
29.335553 2.152513 9.384479 
27.827935 2.126167 9.216063 
26.348719 2.039324 8.897799 
24.940737 1.924842 8.362113 
23.597372 1.786314 7.644461 
22.322411 1.620211 6.819359 
21.106341 1.437216 5.953968 
19.897205 1.247272 5.030527 
18.706033 1.053765 4.104063 
17.466882 0.840992 3.211523 
16.160281 0.649413 2.448752 
14.762303 0.519485 1.924070 
13.254622 0.486612 1.801462 
11.811601 0.579130 2.149443 
10.460398 0.737715 2.828256 
9.188237 0.916700 3.689778 
7.999777 1.099806 4.610652 
6.798640 1.299965 5.542419 
5.588477 1.500952 6.427548 
4.328381 1.684999 7.282921 
3.037416 1.847802 8.062827 
1.678325 1.983002 8.712851 
0.230177 2.075633 9.161027 
-1.268576 2.130403 9.396028 
-2.787635 2.160897 9.482424 
-4.311221 2.176199 9.502636 
-5.832207 2.182330 9.498043 
-7.357205 2.189573 9.482037 
-8.882084 2.199296 9.442172 
-10.389076 2.195191 9.326368 
-11.890260 2.171364 9.064028 
-13.369549 2.137084 8.678451 
-14.835293 2.098860 8.288717 
-16.336485 2.053718 8.022862 
-17.852024 2.015761 7.861614 
-19.359601 2.001685 7.746000 
-20.883717 2.000464 7.650627 
-22.407384 1.998970 7.578141 
-23.927828 2.014042 7.529226 
-25.450914 2.053477 7.559296 
-26.949145 2.091291 7.770708 
-28.417953 2.105618 8.169183 
-29.864745 2.107715 8.650242 
-31.316349 2.119814 9.091178 
-32.805312 2.123792 9.346307 
-34.326847 2.139832 9.426851 
-35.859626 2.161960 9.441481 
-37.374475 2.170909 9.455555 
-38.896547 2.176410 9.465389 
-40.421653 2.180140 9.470511 
-41.899201 2.181970 9.472222 
-43.566086 2.182857 9.472385 
47.627109 2.845671 9.338847 
46.214797 2.848110 9.346460 
44.569255 2.850932 9.354761 
42.973388 2.853507 9.360074 
41.536286 2.855069 9.357672 
40.007812 2.856473 9.350227 
38.477730 2.858421 9.340911 
36.954167 2.860261 9.329906 
35.430769 2.859613 9.317863 
33.907093 2.853380 9.306204 
32.389435 2.838555 9.295188 
30.861365 2.814977 9.280564 
29.335553 2.793400 9.220408 
27.827935 2.755743 9.054887 
26.348719 2.644539 8.742860 
24.940737 2.493364 8.216568 
23.597372 2.308041 7.510896 
22.322411 2.087494 6.699731 
21.106341 1.845545 5.849433 
19.897205 1.592849 4.942057 
18.706033 1.336592 4.031657 
17.466882 1.061999 3.154944 
16.160281 0.817580 2.405700 
14.762303 0.652067 1.890129 
13.254622 0.610883 1.769648 
11.811601 0.726844 2.111627 
10.460398 0.931562 2.778631 
9.188237 1.168716 3.625260 
7.999777 1.413210 4.530418 
6.798640 1.676153 5.446112 
5.588477 1.937833 6.315704 
4.328381 2.180793 7.155995 
3.037416 2.395933 7.922502 
1.678325 2.574317 8.561471 
0.230177 2.698428 9.001587 
-1.268576 2.770438 9.232175 
-2.787635 2.807485 9.316894 
-4.311221 2.824690 9.336618 
-5.832207 2.831165 9.331937 
-7.357205 2.837855 9.316073 
-8.882084 2.845383 9.276770 
-10.389076 2.834451 9.162714 
-11.890260 2.794825 8.904418 
-13.369549 2.736119 8.525095 
-14.835293 2.670482 8.142378 
-16.336485 2.602625 7.882339 
-17.852024 2.548922 7.725121 
-19.359601 2.524969 7.612036 
-20.883717 2.517175 7.518346 
-22.407384 2.510875 7.447090 
-23.927828 2.522935 7.398947 
-25.450914 2.563211 7.428801 
-26.949145 2.610492 7.637790 
-28.417953 2.647317 8.030505 
-29.864745 2.682588 8.503072 
-31.316349 2.730019 8.934961 
-32.805312 2.758249 9.183882 
-34.326847 2.784657 9.261772 
-35.859626 2.809633 9.275672 
-37.374475 2.819497 9.289512 
-38.896547 2.825402 9.299243 
-40.421653 2.829243 9.304336 
-41.899201 2.830976 9.306073 
-43.566086 2.831646 9.306291 
47.627109 3.504064 9.146491 
46.214797 3.506311 9.154160 
44.569255 3.508904 9.162528 
42.973388 3.511230 9.167913 
41.536286 3.512548 9.165583 
40.007812 3.513631 9.158231 
38.477730 3.515162 9.149037 
36.954167 3.516490 9.138182 
35.430769 3.515176 9.126334 
33.907093 3.508014 9.114946 
32.389435 3.491855 9.104320 
30.861365 3.466231 9.090293 
29.335553 3.440295 9.031411 
27.827935 3.391221 8.869226 
26.348719 3.255427 8.564383 
24.940737 3.067215 8.048911 
23.597372 2.834659 7.357039 
22.322411 2.559157 6.561930 
21.106341 2.257702 5.729017 
19.897205 1.941666 4.840147 
18.706033 1.622070 3.948252 
17.466882 1.285078 3.089769 
16.160281 0.987324 2.356108 
14.762303 0.785891 1.851030 
13.254622 0.736319 1.733000 
11.811601 0.875942 2.068067 
10.460398 1.127225 2.721466 
9.188237 1.423095 3.550941 
7.999777 1.729551 4.437996 
6.798640 2.055867 5.335175 
5.588477 2.378810 6.186868 
4.328381 2.681235 7.009786 
3.037416 2.949202 7.760859 
1.678325 3.171175 8.387093 
0.230177 3.327062 8.817926 
-1.268576 3.416473 9.043429 
-2.787635 3.460135 9.126215 
-4.311221 3.479260 9.145379 
-5.832207 3.486083 9.140596 
-7.357205 3.492214 9.124895 
-8.882084 3.497526 9.086240 
-10.389076 3.479702 8.974197 
-11.890260 3.424130 8.720560 
-13.369549 3.340769 8.348440 
-14.835293 3.247463 7.973807 
-16.336485 3.156677 7.720467 
-17.852024 3.087082 7.567892 
-19.359601 3.053159 7.457720 
-20.883717 3.038730 7.365968 
-22.407384 3.027579 7.296130 
-23.927828 3.036599 7.248874 
-25.450914 3.077723 7.278481 
-26.949145 3.134559 7.484678 
-28.417953 3.194093 7.870758 
-29.864745 3.262849 8.333542 
-31.316349 3.345945 8.755012 
-32.805312 3.398654 8.996781 
-34.326847 3.435527 9.071614 
-35.859626 3.463378 9.084674 
-37.374475 3.474166 9.098244 
-38.896547 3.480477 9.107856 
-40.421653 3.484432 9.112916 
-41.899201 3.486065 9.114682 
-43.566086 3.486517 9.114964 
47.627109 4.099783 8.925137 
46.214797 4.101857 8.932871 
44.569255 4.104240 8.941316 
42.973388 4.106341 8.946785 
41.536286 4.107439 8.944537 
40.007812 4.108232 8.937293 
38.477730 4.109386 8.928239 
36.954167 4.110251 8.917556 
35.430769 4.108334 8.905932 
33.907093 4.100331 8.894856 
32.389435 4.082966 8.884678 
30.861365 4.055490 8.871340 
29.335553 4.025609 8.813924 
27.827935 3.966205 8.655577 
26.348719 3.808163 8.359000 
24.940737 3.586440 7.855981 
23.597372 3.311147 7.179988 
22.322411 2.985921 6.403356 
[...]
POINT_DATA 6500
SCALARS sample_scalars float 1
LOOKUP_TABLE my_table
3.635701
2.225331
0.593820
0.195852
0.401035
0.119135
0.409115
0.189002
0.334472
0.272866
0.265455
0.354062
0.225000
0.365522
0.168752
0.471974
0.151347
0.551300
0.246016
0.475308
0.386002
0.371955
0.301861
0.370778
0.170018
0.276625
0.226670
0.324705
0.404080
0.184921
0.519229
0.213475
0.553517
0.149418
0.510294
0.141469
0.482198
0.139602
0.405176
0.207213
0.349258
0.292556
0.391424
0.303815
0.302103
0.315888
0.448773
0.210847
0.350721
0.390001
0.418841
0.441615
0.311197
0.453030
0.286526
0.357313
0.192785
0.432009
0.196753
0.485875
0.139571
0.515807
0.381071
0.434457
3.635403
2.224920
0.592612
0.189938
0.398556
0.112067
0.407676
0.187154
0.333750
0.271221
0.261223
0.348069
0.214613
0.362800
0.159189
0.471471
0.157503
0.553937
0.258777
0.480379
0.399060
0.379075
0.309759
0.371299
0.169860
0.277259
0.226145
0.330312
0.402351
0.186511
0.516157
0.209988
0.548905
0.132168
0.504291
0.114357
0.476126
0.121807
0.400296
0.200345
0.348034
0.310553
0.428348
0.310135
0.299943
0.260851
0.473428
0.186151
0.331438
0.351647
0.389603
0.467492
0.280558
0.435829
0.270841
0.356358
0.241313
0.424925
0.181753
0.480794
0.122785
0.511904
0.376076
0.431537
3.635312
2.224730
0.591710
0.193354
0.399905
0.115569
0.408187
0.187174
0.333492
0.271646
0.264208
0.353287
0.224007
0.363708
0.166169
0.468453
0.150136
0.551856
0.251300
0.475835
0.396578
0.375718
0.309971
0.373890
0.174658
0.281675
0.220132
0.326827
0.400570
0.184443
0.517405
0.213156
0.554350
0.150735
0.508696
0.140228
0.481392
0.136632
0.404136
0.205436
0.348405
0.296381
0.402336
0.259052
0.317590
0.218527
0.406948
0.219438
0.330982
0.314336
0.330706
0.431458
0.198447
0.404718
0.200707
0.383989
0.209688
0.431731
0.194360
0.484836
0.135923
0.514862
0.379842
0.431880
3.635518
2.225119
0.593405
0.187607
0.397296
0.106515
0.405833
0.182177
0.330553
0.267163
0.257740
0.346874
0.212985
0.362716
0.159632
0.473134
0.159927
0.550634
0.265714
0.478162
0.411432
0.381363
0.319789
0.374712
0.173401
0.282327
0.216740
0.331206
0.395087
0.182788
0.510462
0.206516
0.547061
0.134204
0.505373
0.118670
0.476529
0.121046
0.399572
0.197200
0.344074
0.302030
0.417788
0.267746
0.322481
0.198511
0.387125
0.235527
0.338923
0.302243
0.305549
0.408577
0.180297
0.400586
0.210317
0.374956
0.234332
0.425212
0.180109
0.479962
0.119114
0.510952
0.374701
0.432001
3.637058
2.227735
0.603560
0.186613
0.396868
0.104113
0.404964
0.179440
0.328203
0.262281
0.249254
0.338165
0.196459
0.368007
0.160789
0.492234
0.188629
0.547673
0.293819
0.481380
0.435647
0.389826
0.332146
0.376892
0.172619
0.284613
0.209535
0.338749
0.382087
0.180365
0.493201
0.194302
0.529464
0.104631
0.505329
0.084623
0.471516
0.104073
0.395236
0.188088
0.337547
0.304862
0.426824
0.278806
0.323590
0.190331
0.378561
0.237438
0.335877
0.284472
0.278495
0.390931
0.175743
0.397976
0.232919
0.362916
0.258836
0.415482
0.158675
0.473739
0.095437
0.506456
0.368814
0.432321
3.638230
2.229732
0.611222
0.182915
0.394944
0.094172
0.401816
0.170240
0.322138
0.253364
0.238838
0.330895
0.182583
0.371633
0.164212
0.507771
0.205514
0.542127
0.310370
0.479869
0.451617
0.393426
0.344871
0.380426
0.175189
0.289376
0.197246
0.341984
0.368623
0.175396
0.477050
0.182099
0.515060
0.084204
0.500214
0.063411
0.469100
0.091650
0.391685
0.177652
0.328082
0.288948
0.404851
0.259854
0.342114
0.210609
0.365115
0.254442
0.334855
0.269029
0.252659
0.371674
0.172335
0.393315
0.228482
0.370835
0.243884
0.408396
0.139235
0.468301
0.066931
0.502114
0.362937
0.427320
3.639103
2.231254
0.617131
0.193000
0.399232
0.106887
0.403633
0.170974
0.321208
0.252660
0.242191
0.338874
0.197715
0.379574
0.189104
0.518593
0.213351
0.536820
0.310110
0.472476
0.453118
0.389226
0.346925
0.382217
0.176605
0.290620
0.179900
0.338962
0.361641
0.175957
0.472988
0.187571
0.517878
0.131310
0.511281
0.125314
0.479469
0.126884
0.399192
0.187042
0.326467
0.255881
0.341692
0.220783
0.405586
0.291136
0.360991
0.316038
0.356874
0.272963
0.238133
0.342392
0.159024
0.392017
0.206548
0.420771
0.174656
0.416205
0.153498
0.472050
0.088556
0.505294
0.367249
0.431012
3.640172
2.233065
0.623912
0.207843
0.406478
0.130037
0.409821
0.183713
0.327536
0.260587
0.251640
0.347657
0.212530
0.388647
0.208642
0.527642
0.226030
0.536552
0.317383
0.471574
0.460237
0.390319
0.351797
0.382988
0.175654
0.291189
0.171241
0.340362
0.358899
0.181342
0.472344
0.196350
0.521450
0.158753
0.519345
0.155790
0.487724
0.152736
0.407257
0.201198
0.331998
0.251594
0.322826
0.220311
0.438109
0.294375
0.368675
0.313518
0.363841
0.275300
0.233518
0.338275
0.186217
0.394884
0.214955
0.444765
0.157192
0.423280
0.168530
0.477084
0.112802
0.510158
0.373981
0.436834
3.641539
2.235375
0.632450
0.227244
0.416624
0.157821
0.418929
0.201953
0.337490
0.272921
0.265517
0.359731
0.231795
0.400450
0.231741
0.538300
0.241532
0.537636
0.326005
0.471600
0.467708
0.391886
0.356788
0.383935
0.175104
0.292078
0.163477
0.342460
0.357560
0.189595
0.473538
0.208956
0.527201
0.188800
0.529758
0.188014
0.498384
0.181929
0.418176
0.220207
0.341226
0.252305
0.307125
0.227965
0.414848
0.256417
0.377627
0.287206
0.373464
0.286467
0.240938
0.343668
0.232601
0.401953
0.232719
0.451612
0.147279
0.432789
0.188149
0.484341
0.140914
0.517197
0.383637
0.445233
3.643228
2.238220
0.642806
0.250342
0.429580
0.188461
0.430889
0.224584
0.350905
0.289263
0.283310
0.374853
0.254595
0.414881
0.257580
0.550623
0.259573
0.540113
0.336044
0.472621
0.475606
0.393979
0.361939
0.385081
0.175001
0.293322
0.156798
0.345305
0.357604
0.200425
0.476495
0.224798
0.534996
0.220409
0.542367
0.221291
0.511350
0.213247
0.431816
0.243093
0.353976
0.257835
0.294091
0.239624
0.395840
0.227495
0.386750
0.262406
0.391062
0.313071
0.267979
0.362366
0.296268
0.417826
0.260485
0.430549
0.145243
0.444556
0.211220
0.493794
0.171212
0.526397
0.396100
0.456150
3.645240
2.241602
0.654893
0.276360
0.445196
0.220976
0.445579
0.250627
0.367553
0.309162
0.304518
0.392801
0.280254
0.431727
0.285475
0.564429
0.279654
0.544050
0.347339
0.474678
0.483853
0.396592
0.367207
0.386423
0.175365
0.294919
0.151496
0.348881
0.359162
0.213514
0.481339
0.243386
0.544897
0.253122
0.557117
0.255355
0.526521
0.246040
0.448027
0.269054
0.370053
0.268002
0.283839
0.252955
0.378890
0.205822
0.396679
0.240858
0.391545
0.358389
0.317534
0.397818
0.374162
0.447056
0.299382
0.413526
0.150090
0.458514
0.236997
0.505437
0.203001
0.537750
0.411249
0.469526
3.647573
2.245511
0.668598
0.304635
0.463260
0.254760
0.462810
0.279256
0.387120
0.332104
0.328605
0.413293
0.308175
0.450727
0.314886
0.579523
0.301326
0.549486
0.359716
0.477797
0.492371
0.399714
0.372545
0.387955
0.176213
0.296864
0.147863
0.353161
0.362327
0.228513
0.488149
0.264234
0.556909
0.286621
0.573901
0.289998
0.543749
0.279872
0.466599
0.297399
0.389163
0.282444
0.276759
0.266846
0.362824
0.191824
0.409130
0.226613
0.369307
0.392287
0.384442
0.450276
0.461629
0.492242
0.349738
0.398868
0.160970
0.474573
0.264867
0.519208
0.235855
0.551197
0.428891
0.485239
3.650232
2.249956
0.683853
0.334658
0.483540
0.289450
0.482361
0.309844
0.409258
0.357581
0.355050
0.436003
0.337836
0.471655
0.345431
0.595807
0.324306
0.556416
0.373106
0.481998
0.501157
0.403354
0.377953
0.389683
0.177562
0.299164
0.146105
0.358139
0.367079
0.245086
0.496859
0.286869
0.570899
0.288502
0.577489
0.321116
0.562854
0.314442
0.487292
0.327570
0.410951
0.300613
0.273144
0.280899
0.347265
0.186862
0.426812
0.224469
0.353921
0.379816
0.421062
0.515082
0.552979
0.551576
0.410355
0.385638
0.177513
0.492598
0.294318
0.534991
0.269479
0.566633
0.448787
0.503115
3.653238
2.254966
0.700656
0.366086
0.505834
0.324855
0.504029
0.341967
0.433652
0.385171
0.383422
0.455487
0.356700
0.494344
0.323756
0.589338
0.348466
0.564815
0.387540
0.487308
0.510280
0.407551
0.383471
0.391627
0.179438
0.301846
0.146324
0.363836
0.373300
0.249623
0.499409
0.291423
0.555736
0.254078
0.559349
0.285464
0.555345
0.323630
0.506339
0.359168
0.435066
0.321910
0.273098
0.295767
0.332259
0.191165
0.451842
0.236767
0.348588
0.377544
0.416594
0.585142
0.642171
0.620294
0.477533
0.373763
0.199761
0.512446
0.324978
0.552654
0.303695
0.583942
0.470704
0.522979
3.655883
2.257473
0.702397
0.357721
0.500597
0.324201
0.509549
0.359282
0.451933
0.401553
0.381166
0.430623
0.325032
0.477017
0.295120
0.577255
0.345111
0.574666
0.403014
0.493745
0.519780
0.412327
0.389123
0.393801
0.181856
0.304926
0.148564
0.370261
0.369437
0.232658
0.486152
0.267101
0.540779
0.219932
0.543020
0.249749
0.536776
0.288980
0.484231
0.343300
0.445570
0.345896
0.276786
0.313765
0.318279
0.204318
0.444966
0.261634
0.354225
0.386012
0.421765
0.644939
0.674600
0.651801
0.547222
0.364439
0.227628
0.495144
0.328086
0.557672
0.311309
0.587053
0.472870
0.522845
3.653457
2.253545
0.689676
0.328304
0.479876
0.290638
0.488458
0.327976
0.427066
0.373428
0.352463
0.407337
0.294185
0.458134
0.267963
0.566657
0.327251
0.575834
0.419334
0.501285
0.529556
0.417644
0.394851
0.396191
0.184798
0.308379
0.152848
0.377354
0.359532
0.217019
0.474334
0.243934
0.527547
0.186179
0.528635
0.213947
0.519989
0.254634
0.463792
0.312275
0.420077
0.372396
0.284843
0.337119
0.306844
0.224828
0.433127
0.294446
0.368995
0.402526
0.434305
0.647422
0.694660
0.663548
0.587521
0.359867
0.260046
0.475155
0.295480
0.538959
0.276365
0.569268
0.450598
0.502815
3.651321
2.250097
0.678386
0.300239
0.461009
0.257690
0.469169
0.297723
0.403881
0.346769
0.325218
0.385999
0.264574
0.441117
0.242763
0.557492
0.311017
0.565110
0.416113
0.509888
0.539535
0.423467
0.400615
0.398782
0.188242
0.312183
0.159083
0.375825
0.350945
0.203052
0.464239
0.222396
0.516334
0.153209
0.516439
0.178122
0.505195
0.220817
0.445301
0.282419
0.396314
0.401257
0.297946
0.367272
0.300231
0.250675
0.422596
0.330867
0.389675
0.423132
0.450375
0.650000
0.710996
0.677782
0.590594
0.361657
0.295623
0.456758
0.263092
0.521760
0.241179
0.553052
0.429964
0.484466
3.649479
2.247136
0.668611
0.274064
0.444308
0.225784
0.451998
0.269033
0.382798
0.322077
0.299973
0.367051
0.236823
0.426231
0.220244
0.549790
0.296683
0.555634
0.410130
0.504805
0.549729
0.429793
0.406423
0.401581
0.192176
0.316336
0.162090
0.372253
0.343861
0.191175
0.456082
0.203118
0.507367
0.121801
0.506650
0.142425
0.492625
0.187969
0.429087
0.254296
0.374738
0.372495
0.316537
0.357508
0.301117
0.280777
0.414187
0.368391
0.413800
0.445375
0.467440
0.649775
0.720707
0.691460
0.594425
0.370228
0.332983
0.440299
0.231219
0.506322
0.205844
0.538629
0.411320
0.468087
3.647945
2.244685
0.660484
0.250522
0.430115
0.195632
0.437288
0.242640
0.364304
0.299984
0.277411
0.350961
0.211787
0.413787
0.201386
0.543657
0.284631
0.547523
0.405203
0.499101
0.553219
0.431379
0.408721
0.404600
0.196597
0.318776
0.151304
0.369313
0.338386
0.181834
0.449975
0.186864
0.500767
0.093563
0.499414
0.107105
0.482494
0.156861
0.415488
0.228697
0.355862
0.344083
0.340776
0.331059
0.311887
0.314308
0.409462
0.405554
0.439866
0.468280
0.484523
0.645019
0.722028
0.701832
0.597186
0.384686
0.352598
0.426108
0.200304
0.492893
0.170508
0.526221
0.395048
0.453978
3.646744
2.242786
0.654208
0.230612
0.418788
0.168444
0.425402
0.219584
0.348942
0.281246
0.258352
0.338181
0.190595
0.404140
0.187416
0.539314
0.275384
0.540875
0.401547
0.494407
0.553967
0.429741
0.409424
0.404306
0.196032
0.317666
0.141764
0.367084
0.334511
0.175456
0.445868
0.174466
0.496494
0.072037
0.494769
0.072681
0.474984
0.128918
0.404832
0.206708
0.340228
0.317241
0.370217
0.303729
0.332929
0.349604
0.409355
0.375985
0.463980
0.472113
0.501939
0.635158
0.714142
0.707133
0.596757
0.403457
0.317745
0.414460
0.171019
0.481706
0.135415
0.516042
0.381541
0.442428
3.645886
2.241453
0.649870
0.215433
0.410610
0.146028
0.416634
0.201137
0.337214
0.266664
0.243701
0.329136
0.174713
0.397529
0.179479
0.536812
0.269272
0.535779
0.399232
0.490785
0.555038
0.428609
0.410220
0.404004
0.194430
0.316900
0.133794
0.365594
0.332292
0.172369
0.443809
0.166796
0.494590
0.064189
0.492767
0.041426
0.470231
0.106740
0.397389
0.189679
0.328370
0.292794
0.388622
0.278578
0.362241
0.384434
0.413884
0.336395
0.425010
0.423471
0.456871
0.620870
0.697211
0.706403
0.591555
0.425185
0.284698
0.405611
0.144528
0.472973
0.101059
0.508271
0.371161
0.433695
3.645359
2.240668
0.647439
0.206038
0.405777
0.130885
0.411198
0.188705
0.329547
0.257007
0.234361
0.324191
0.165792
0.394060
0.178290
0.536031
0.266374
0.532316
0.398175
0.488260
0.556349
0.427960
0.411062
0.403877
0.193289
0.316464
0.127784
0.364820
0.331869
0.172741
0.443963
0.164590
0.495210
0.074556
0.493499
0.028119
0.468328
0.094531
0.393360
0.179099
0.320776
0.271894
0.353698
0.258697
0.396381
0.359420
0.422234
0.297052
0.387256
0.374332
0.398728
0.605131
0.673759
0.699555
0.580541
0.448855
0.253717
0.399801
0.122908
0.466890
0.068893
0.503061
0.364230
0.427992
3.645164
2.240429
0.646924
0.203279
0.404432
0.125762
0.409261
0.183597
0.326282
0.252912
0.231055
0.323574
0.165047
0.393811
0.183925
0.536914
0.266752
0.530551
0.398358
0.486864
0.557869
0.427792
0.411927
0.403921
0.192622
0.316354
0.124085
0.364758
0.333288
0.176532
0.446378
0.168087
0.498385
0.097432
0.496963
0.050112
0.469318
0.096226
0.392874
0.176210
0.317818
0.255780
0.321222
0.246442
0.414806
0.309143
0.433775
0.260307
0.353469
0.329161
0.342462
0.578015
0.621130
0.688087
0.563236
0.473745
0.225264
0.397206
0.109351
0.463616
0.044552
0.500537
0.361005
0.425490
3.645313
2.240757
0.648394
0.207517
0.406657
0.131988
0.410924
0.186541
0.327621
0.254730
0.234100
0.327324
0.172595
0.396841
0.195786
0.539507
0.270478
0.530521
0.399858
0.486641
0.559642
0.428136
0.412843
0.404151
0.192454
0.316591
0.122919
0.365432
0.336471
0.183499
0.450937
0.176902
0.503982
0.125983
0.503042
0.082809
0.473179
0.111226
0.395968
0.181450
0.319671
0.245567
0.292602
0.242548
0.379249
0.261538
0.448480
0.230184
0.327538
0.294729
0.295584
0.506949
0.538489
0.638409
0.540676
0.452172
0.200103
0.397891
0.107162
0.463261
0.044424
0.500781
0.361642
0.426289
3.645832
2.241690
0.651958
0.218476
0.412462
0.148333
0.416215
0.197330
0.333596
0.262434
0.243316
0.335295
0.187414
0.403169
0.212856
0.543923
0.277588
0.532243
0.402813
0.487639
0.561765
0.429040
0.413862
0.404589
0.192818
0.317206
0.124333
0.366889
0.341253
0.193261
0.457416
0.190211
0.511760
0.156908
0.511539
0.117453
0.479837
0.135211
0.402587
0.194237
0.326294
0.241972
0.269084
0.245921
0.351622
0.217638
0.442904
0.211730
0.313034
0.277188
0.266051
0.442242
0.454585
0.579111
0.514743
0.423077
0.179354
0.401821
0.117134
0.465879
0.068988
0.503837
0.366182
0.430420
3.646717
2.243220
0.657559
0.235219
0.421699
0.171938
0.425003
0.214801
0.343982
0.275551
0.258065
0.347207
0.207974
0.412620
0.233930
0.550053
0.287774
0.535712
0.407152
0.489851
0.564204
0.430491
0.414967
0.405229
0.193707
0.318188
0.128267
0.369101
0.347584
0.205383
0.465758
0.207134
0.521639
0.188979
0.522332
0.152700
0.489171
0.164276
0.412561
0.213233
0.337427
0.245095
0.251528
0.254985
0.331801
0.179453
0.416147
0.209280
0.311906
0.278714
0.258481
0.389535
0.373984
0.522766
0.487335
0.397778
0.164420
0.408914
0.136764
0.471457
0.101833
0.509679
0.374512
0.437810
3.647954
2.245323
0.665058
0.256542
0.434105
0.200166
0.437042
0.237425
0.358364
0.293330
0.277451
0.362666
0.232762
0.424904
0.257910
0.557689
0.300565
0.540899
0.412713
0.493235
0.566869
0.432444
0.416105
0.406051
0.195096
0.319508
0.134527
0.372009
0.355442
0.219424
0.475950
0.226856
0.533579
0.221662
0.535303
0.188183
0.501008
0.196112
0.425629
0.236910
0.352631
0.254494
0.240551
0.268422
0.319382
0.150476
0.398243
0.222835
0.322953
0.294618
0.268966
0.353093
0.301764
0.473531
0.455523
0.377306
0.156583
0.419018
0.162669
0.479905
0.137160
0.518212
0.386385
0.448294
3.649539
2.247990
0.674359
0.281359
0.449385
0.231272
0.452045
0.263841
0.376259
0.314953
0.300546
0.381206
0.260526
0.439740
0.283961
0.566706
0.315576
0.547749
0.419409
0.497758
0.569735
0.434879
0.417263
0.407047
0.196968
0.321151
0.142799
0.375576
0.364714
0.234977
0.487859
0.248650
0.547424
0.254608
0.550261
0.223703
0.515140
0.229493
0.441483
0.263967
0.371380
0.269367
0.236477
0.285335
0.313645
0.135581
0.389604
0.242488
0.337898
0.310184
0.281399
0.333729
0.243973
0.435186
0.393129
0.362384
0.156357
0.431893
0.192353
0.491082
0.173457
0.529304
0.401479
0.461652
3.651484
2.251236
0.685444
0.308828
0.467257
0.264241
0.469727
0.293025
0.397191
0.339677
0.326533
0.402353
0.290336
0.456891
0.311498
0.577091
0.332555
0.556188
0.427263
0.503402
0.572854
0.437812
0.418471
0.408229
0.199320
0.323127
0.152703
0.379800
0.375191
0.251688
0.501226
0.271914
0.562891
0.287550
0.566941
0.259120
0.531342
0.263767
0.459808
0.293436
0.393139
0.288776
0.239177
0.305198
0.313712
0.137041
0.390040
0.253108
0.343670
0.308279
0.277344
0.327482
0.206476
0.410295
0.338139
0.353208
0.163109
0.447246
0.224327
0.504814
0.210238
0.542802
0.419447
0.477639
3.653806
2.255087
0.698310
0.338337
0.487455
0.298491
0.489822
0.324265
0.420732
0.366894
0.354771
0.425690
0.321575
0.476149
0.340129
0.588859
0.351299
0.566133
0.436315
0.510147
0.576298
0.441263
0.418577
0.409609
0.202149
0.323481
0.156911
0.381444
0.374672
0.243683
0.508032
0.296213
0.579700
0.305298
0.585096
0.294383
0.549404
0.298599
0.480314
0.324657
0.417425
0.311850
0.248129
0.327348
0.318809
0.149223
0.396210
0.242849
0.331169
0.281557
0.250133
0.333273
0.196932
0.398246
0.295086
0.349295
0.175321
0.464792
0.257774
0.520920
0.247333
0.558549
0.439958
0.496015
3.656494
2.259520
0.712793
0.369344
0.509665
0.333568
0.512008
0.356971
0.446433
0.396054
0.384739
0.450862
0.353850
0.497208
0.322568
0.571644
0.356494
0.577499
0.446400
0.516486
0.578700
0.438762
0.414564
0.407596
0.200002
0.320000
0.148123
0.374850
0.369397
0.228140
0.500002
0.284727
0.569818
0.276245
0.580008
0.318588
0.569130
0.333772
0.502709
0.357135
0.443800
0.337808
0.262632
0.351200
0.327925
0.162905
0.402526
0.212299
0.309197
0.259234
0.235634
0.365390
0.229117
0.395397
0.267380
0.349540
0.191282
0.484297
0.292211
0.539192
0.284615
0.576355
0.462662
0.516514
3.659528
2.264499
0.718406
0.365442
0.504316
0.328022
0.510192
0.357207
0.448526
0.397773
0.381344
0.438722
0.337448
0.482355
0.293210
0.555397
0.333083
0.571606
0.435361
0.508052
0.572316
0.433864
0.410609
0.405480
0.196550
0.316862
0.141123
0.368921
0.365590
0.214231
0.493699
0.262945
0.559343
0.248602
0.565096
0.284566
0.549430
0.304965
0.492283
0.348150
0.437223
0.365981
0.281824
0.363276
0.339848
0.170750
0.403826
0.204542
0.331469
0.342799
0.338512
0.453492
0.315452
0.397507
0.255071
0.352432
0.209647
0.505519
0.327298
0.559391
0.321960
0.595999
0.485350
0.532695
3.658099
2.259294
0.701923
0.333496
0.481768
0.291823
0.487461
0.323514
0.422017
0.367949
0.351326
0.414669
0.306336
0.460864
0.265214
0.540389
0.310839
0.560986
0.422818
0.500663
0.566112
0.429443
0.406682
0.403548
0.193559
0.314058
0.136195
0.363657
0.363337
0.202250
0.489248
0.243061
0.550850
0.222869
0.552045
0.251141
0.531560
0.269929
0.470473
0.315583
0.411183
0.395829
0.304775
0.339768
0.353306
0.167679
0.399110
0.302973
0.465532
0.569107
0.574829
0.612491
0.454117
0.403312
0.254671
0.356344
0.229617
0.497017
0.321801
0.552206
0.298210
0.578572
0.460698
0.510611
3.655108
2.254560
0.686952
0.303027
0.461328
0.256344
0.466876
0.291213
0.397660
0.340079
0.323216
0.392819
0.276848
0.441303
0.239005
0.526705
0.290022
0.551894
0.411200
0.494369
0.560099
0.425512
0.402787
0.401803
0.191051
0.311597
0.133545
0.359081
0.362636
0.192500
0.486666
0.225534
0.544401
0.199686
0.539311
0.218558
0.515703
0.235641
0.450790
0.284497
0.387467
0.377456
0.330634
0.318495
0.366151
0.151291
0.397177
0.509551
0.708944
0.877075
0.892238
0.835661
0.638946
0.417406
0.262701
0.359874
0.250934
0.476826
0.286797
0.532599
0.260701
0.560413
0.437981
0.490511
3.652486
2.250421
0.673677
0.274557
0.443302
0.221960
0.448747
0.260849
0.375891
0.314693
0.297534
0.373510
0.249476
0.423976
0.215154
0.514543
0.271057
0.544394
0.400703
0.489229
0.554370
0.422120
0.398975
0.400264
0.189058
0.309506
0.133223
0.355246
0.363362
0.185225
0.485810
0.210807
0.539895
0.179732
0.528468
0.187085
0.502012
0.202414