# vtk DataFile Version 2.0
Comment goes here
ASCII
DATASET UNSTRUCTURED_GRID
POINTS 6500 float
47.627109 1.062267 9.628460 
46.211658 1.064972 9.656583 
44.563043 1.068186 9.688648 
42.965214 1.071397 9.715923 
41.523731 1.073531 9.728290 
39.991959 1.075172 9.732356 
38.458521 1.077134 9.733004 
36.931577 1.079101 9.731508 
35.404809 1.078913 9.728845 
33.877778 1.073372 9.722796 
32.356769 1.059755 9.711785 
30.825416 1.039397 9.690112 
29.296404 1.031196 9.615011 
27.785534 1.031594 9.447475 
26.289799 0.997588 9.167715 
24.862928 0.954778 8.663918 
23.510109 0.897997 7.958713 
22.236097 0.818053 7.103158 
21.052005 0.724940 6.167385 
19.873188 0.635846 5.160192 
18.708214 0.550553 4.184136 
17.455988 0.446107 3.279019 
16.132918 0.347636 2.531780 
14.720089 0.281573 2.009457 
13.211022 0.269538 1.878297 
11.766136 0.324660 2.241151 
10.419372 0.402588 2.952145 
9.149820 0.480586 3.844212 
7.955591 0.559860 4.786793 
6.749021 0.655156 5.736334 
5.532597 0.754032 6.646883 
4.272665 0.836818 7.526951 
2.969271 0.905876 8.309282 
1.592847 0.957665 8.947909 
0.144718 0.989931 9.409203 
-1.356493 1.023672 9.674742 
-2.878355 1.049054 9.774837 
-4.404462 1.060507 9.791228 
-5.928925 1.064115 9.776545 
-7.457402 1.068718 9.744016 
-8.983878 1.076673 9.681389 
-10.495949 1.080494 9.555556 
-12.005796 1.087203 9.319567 
-13.493679 1.101807 8.960545 
-14.963716 1.111516 8.552793 
-16.457609 1.100530 8.230008 
-17.969278 1.091385 8.004661 
-19.473977 1.098768 7.822290 
-20.996144 1.107836 7.655654 
-22.518457 1.112092 7.515158 
-24.038808 1.130661 7.399708 
-25.565606 1.163364 7.337992 
-27.069006 1.180912 7.487322 
-28.521826 1.158478 7.936118 
-29.930168 1.109551 8.567009 
-31.326779 1.062677 9.176406 
-32.790504 1.027239 9.576914 
-34.304754 1.025891 9.730873 
-35.839566 1.043511 9.765727 
-37.357798 1.053430 9.786085 
-38.883179 1.059939 9.798614 
-40.411692 1.064266 9.804154 
-41.892408 1.066636 9.805145 
-43.562468 1.068365 9.803823 
47.627109 1.658227 9.521275 
46.211658 1.660691 9.549442 
44.563043 1.663629 9.581556 
42.965214 1.666583 9.608878 
41.523731 1.668466 9.621290 
39.991959 1.669709 9.625428 
38.458521 1.671114 9.626176 
36.931577 1.672420 9.624798 
35.404809 1.671425 9.622281 
33.877778 1.664782 9.616430 
32.356769 1.649623 9.605696 
30.825416 1.627069 9.584418 
29.296404 1.614997 9.510014 
27.785534 1.605925 9.344181 
26.289799 1.550706 9.068236 
24.862928 1.474643 8.570420 
23.510109 1.374475 7.873017 
22.236097 1.243238 7.026688 
21.052005 1.095322 6.100771 
19.873188 0.948764 5.103913 
18.708214 0.807048 4.138005 
17.455988 0.645894 3.243087 
16.132918 0.499120 2.504535 
14.720089 0.401052 1.987968 
13.211022 0.382961 1.857898 
11.766136 0.460571 2.216707 
10.419372 0.580978 2.920061 
9.149820 0.712310 3.802536 
7.955591 0.848338 4.734910 
6.749021 1.001631 5.674020 
5.532597 1.156565 6.574486 
4.272665 1.293161 7.444877 
2.969271 1.409567 8.218693 
1.592847 1.499469 8.850465 
0.144718 1.559017 9.306852 
-1.356493 1.609133 9.569445 
-2.878355 1.641069 9.668362 
-4.404462 1.654133 9.684464 
-5.928925 1.657730 9.669782 
-7.457402 1.661188 9.637459 
-8.983878 1.666134 9.575374 
-10.495949 1.662748 9.450837 
-12.005796 1.654664 9.217509 
-13.493679 1.647167 8.862461 
-14.963716 1.632141 8.459158 
-16.457609 1.600440 8.140099 
-17.969278 1.577634 7.917208 
-19.473977 1.576812 7.736313 
-20.996144 1.579982 7.570738 
-22.518457 1.579543 7.431086 
-24.038808 1.595115 7.316175 
-25.565606 1.628190 7.254392 
-27.069006 1.655058 7.402046 
-28.521826 1.654641 7.846882 
-29.930168 1.636341 8.472265 
-31.326779 1.620459 9.076088 
-32.790504 1.607108 9.472624 
-34.304754 1.615449 9.624840 
-35.839566 1.635765 9.659209 
-37.357798 1.646898 9.679349 
-38.883179 1.654033 9.691765 
-40.411692 1.658584 9.697264 
-41.892408 1.660923 9.698262 
-43.562468 1.662527 9.696962 
47.627109 2.194138 9.392233 
46.211658 2.196387 9.420451 
44.563043 2.199076 9.452625 
42.965214 2.201799 9.480003 
41.523731 2.203457 9.492469 
39.991959 2.204341 9.496693 
38.458521 2.205246 9.497562 
36.931577 2.205957 9.496328 
35.404809 2.204236 9.493985 
33.877778 2.196602 9.488372 
32.356769 2.180057 9.477972 
30.825416 2.155528 9.457170 
29.296404 2.139975 9.383604 
27.785534 2.122388 9.219821 
26.289799 2.048094 8.948470 
24.862928 1.942127 8.457854 
23.510109 1.802944 7.769846 
22.236097 1.625583 6.934623 
21.052005 1.428385 6.020573 
19.873188 1.230152 5.036158 
18.708214 1.037699 4.082467 
17.455988 0.825550 3.199827 
16.132918 0.635341 2.471734 
14.720089 0.508492 1.962098 
13.211022 0.484955 1.833339 
11.766136 0.582787 2.187278 
10.419372 0.741392 2.881435 
9.149820 0.920687 3.752361 
7.955591 1.107750 4.672446 
6.749021 1.313196 5.598998 
5.532597 1.518540 6.487326 
4.272665 1.703524 7.346066 
2.969271 1.862506 8.109629 
1.592847 1.986682 8.733149 
0.144718 2.070763 9.183628 
-1.356493 2.135605 9.442676 
-2.878355 2.173434 9.540173 
-4.404462 2.187946 9.555926 
-5.928925 2.191533 9.541248 
-7.457402 2.193961 9.509173 
-8.983878 2.196203 9.447738 
-10.495949 2.186335 9.324762 
-12.005796 2.164948 9.094637 
-13.493679 2.137578 8.744375 
-14.963716 2.100308 8.346428 
-16.457609 2.049979 8.031854 
-17.969278 2.014889 7.811921 
-19.473977 2.006689 7.632802 
-20.996144 2.004555 7.468505 
-22.518457 1.999895 7.329869 
-24.038808 2.012772 7.215608 
-25.565606 2.046181 7.153744 
-27.069006 2.081430 7.299380 
-28.521826 2.100811 7.739449 
-29.930168 2.110054 8.358200 
-31.326779 2.122041 8.955312 
-32.790504 2.128550 9.347065 
-34.304754 2.145605 9.497184 
-35.839566 2.168345 9.530968 
-37.357798 2.180570 9.550846 
-38.883179 2.188266 9.563127 
-40.411692 2.193020 9.568577 
-41.892408 2.195331 9.569582 
-43.562468 2.196822 9.568308 
47.627109 2.846627 9.225192 
46.211658 2.848612 9.253477 
44.563043 2.851000 9.285729 
42.965214 2.853441 9.313179 
41.523731 2.854825 9.325715 
39.991959 2.855272 9.330051 
38.458521 2.855567 9.331076 
36.931577 2.855555 9.330027 
35.404809 2.852951 9.327910 
33.877778 2.844110 9.322606 
32.356769 2.825877 9.312639 
30.825416 2.798944 9.292451 
29.296404 2.779153 9.219971 
27.785534 2.751197 9.058842 
26.289799 2.653678 8.793437 
24.862928 2.511304 8.312141 
23.510109 2.324618 7.636294 
22.236097 2.091099 6.815448 
21.052005 1.833899 5.916759 
19.873188 1.572752 4.948450 
18.708214 1.318524 4.010574 
17.455988 1.044286 3.143829 
16.132918 0.801194 2.429275 
14.720089 0.639303 1.928609 
13.211022 0.609137 1.801548 
11.766136 0.731589 2.149184 
10.419372 0.936703 2.831434 
9.149820 1.174392 3.687411 
7.955591 1.423591 4.591589 
6.749021 1.692535 5.501885 
5.532597 1.959256 6.374500 
4.272665 2.203154 7.218157 
2.969271 2.413974 7.968450 
1.592847 2.579879 8.581287 
0.144718 2.693830 9.024119 
-1.356493 2.776600 9.278577 
-2.878355 2.821605 9.374238 
-4.404462 2.837881 9.389539 
-5.928925 2.841454 9.374864 
-7.457402 2.842628 9.343110 
-8.983878 2.841577 9.282518 
-10.495949 2.823818 9.161563 
-12.005796 2.786236 8.935584 
-13.493679 2.734668 8.591516 
-14.963716 2.670317 8.200502 
-16.457609 2.597307 7.891734 
-17.969278 2.547261 7.675630 
-19.473977 2.530078 7.498811 
-20.996144 2.521486 7.336168 
-22.518457 2.511686 7.198847 
-24.038808 2.521281 7.085426 
-25.565606 2.555098 7.023458 
-27.069006 2.600551 7.166482 
-28.521826 2.644036 7.600380 
-29.930168 2.686813 8.210546 
-31.326779 2.732731 8.798971 
-32.790504 2.763422 9.184534 
-34.304754 2.791086 9.331937 
-35.839566 2.816777 9.364966 
-37.357798 2.830331 9.384503 
-38.883179 2.838712 9.396609 
-40.411692 2.843712 9.401996 
-41.892408 2.845988 9.403009 
-43.562468 2.847343 9.401771 
47.627109 3.505233 9.032773 
46.211658 3.506952 9.061137 
44.563043 3.509035 9.093477 
42.965214 3.511192 9.121010 
41.523731 3.512299 9.133627 
39.991959 3.512305 9.138092 
38.458521 3.511985 9.139297 
36.931577 3.511242 9.138461 
35.404809 3.507747 9.136605 
33.877778 3.497687 9.131657 
32.356769 3.477750 9.122187 
30.825416 3.448391 9.102709 
29.296404 3.424322 9.031478 
27.785534 3.385901 8.873407 
26.289799 3.264939 8.614850 
24.862928 3.085816 8.144292 
23.510109 2.851182 7.482453 
22.236097 2.560978 6.678168 
21.052005 2.243215 5.797173 
19.873188 1.918563 4.847418 
18.708214 1.601981 3.927759 
17.455988 1.265074 3.079324 
16.132918 0.968602 2.380365 
14.720089 0.771340 1.890033 
13.211022 0.734482 1.764927 
11.766136 0.881786 2.105302 
10.419372 1.133844 2.773837 
9.149820 1.430475 3.612594 
7.955591 1.742393 4.498447 
6.749021 2.075431 5.390018 
5.532597 2.404103 6.244533 
4.272665 2.707467 7.070817 
2.969271 2.970611 7.805822 
1.592847 3.178636 8.406354 
0.144718 3.322737 8.840378 
-1.356493 3.423603 9.089549 
-2.878355 3.475851 9.183093 
-4.404462 3.493907 9.197874 
-5.928925 3.497468 9.183202 
-7.457402 3.497376 9.151818 
-8.983878 3.493002 9.092198 
-10.495949 3.467276 8.973569 
-12.005796 3.413347 8.752367 
-13.493679 3.337355 8.415435 
-14.963716 3.245669 8.032407 
-16.457609 3.149767 7.730328 
-17.969278 3.084624 7.518634 
-19.473977 3.058373 7.344465 
-20.996144 3.043263 7.183725 
-22.518457 3.028275 7.047921 
-24.038808 3.034558 6.935467 
-25.565606 3.068786 6.873379 
-27.069006 3.124538 7.013394 
-28.521826 3.192354 7.440183 
-29.930168 3.268978 8.040460 
-31.326779 3.349146 8.618879 
-32.790504 3.404245 8.997311 
-34.304754 3.442618 9.141585 
-35.839566 3.471288 9.173744 
-37.357798 3.486183 9.192889 
-38.883179 3.495255 9.204793 
-40.411692 3.500503 9.210108 
-41.892408 3.502745 9.211131 
-43.562468 3.503962 9.209933 
47.627109 4.101143 8.811348 
46.211658 4.102623 8.839801 
44.563043 4.104429 8.872244 
42.965214 4.106329 8.899873 
41.523731 4.107185 8.912583 
39.991959 4.106793 8.917196 
38.458521 4.105916 8.918607 
36.931577 4.104512 8.918017 
35.404809 4.100210 8.916461 
33.877778 4.089049 8.911922 
32.356769 4.067570 8.903025 
30.825416 4.036015 8.884363 
29.296404 4.008075 8.814570 
27.785534 3.960186 8.660018 
26.289799 3.818012 8.409343 
24.862928 3.605638 7.951139 
23.510109 3.327621 7.305421 
22.236097 2.986129 6.520193 
[...]
POINT_DATA 6500
SCALARS sample_scalars float 1
LOOKUP_TABLE my_table
3.633501
2.218510
0.574966
0.220575
0.394673
0.121566
0.429965
0.170853
0.357269
0.241528
0.289510
0.320327
0.258733
0.324236
0.227046
0.494028
0.304390
0.616022
0.325968
0.497522
0.361179
0.377377
0.316663
0.419606
0.134774
0.330947
0.162590
0.379477
0.327704
0.221678
0.437261
0.228297
0.471177
0.164231
0.441394
0.131841
0.487696
0.070236
0.492609
0.116436
0.442195
0.214064
0.451161
0.246168
0.434271
0.294052
0.530440
0.127065
0.517653
0.522421
0.673461
0.683983
0.649056
0.623734
0.354976
0.388608
0.184131
0.433650
0.129499
0.485345
0.068265
0.492587
0.369987
0.423881
3.633432
2.218397
0.574547
0.216353
0.392507
0.114980
0.428393
0.167511
0.355612
0.237633
0.283475
0.311485
0.247579
0.320580
0.221196
0.494485
0.308501
0.619200
0.333494
0.501104
0.373305
0.383146
0.323241
0.422015
0.135743
0.331934
0.166070
0.384157
0.326249
0.224051
0.434578
0.226911
0.466438
0.148328
0.432714
0.102260
0.482298
0.030856
0.489150
0.104835
0.440880
0.235870
0.481229
0.247059
0.430037
0.232350
0.554434
0.115986
0.512849
0.495339
0.679794
0.674771
0.650754
0.622744
0.360338
0.388190
0.235832
0.426465
0.104573
0.480357
0.023280
0.488896
0.365455
0.420204
3.633268
2.218110
0.573350
0.218306
0.393498
0.117986
0.429063
0.168815
0.356388
0.240342
0.288777
0.320155
0.258618
0.322205
0.225367
0.490608
0.303729
0.615548
0.327851
0.497382
0.370448
0.379857
0.321933
0.420803
0.136504
0.333675
0.155688
0.381326
0.324651
0.221617
0.435265
0.227831
0.471819
0.164582
0.443047
0.130300
0.486998
0.063723
0.491750
0.113485
0.441605
0.218370
0.457545
0.171173
0.440918
0.184121
0.508880
0.174855
0.515351
0.458060
0.647405
0.689367
0.643847
0.594489
0.315230
0.409558
0.202452
0.433340
0.126383
0.484376
0.060784
0.491636
0.368780
0.422886
3.633510
2.218540
0.575182
0.212583
0.390583
0.108212
0.426539
0.162354
0.353161
0.234379
0.281950
0.312066
0.247895
0.320666
0.222469
0.496273
0.310571
0.617516
0.337027
0.498596
0.384315
0.384159
0.329342
0.422787
0.140022
0.337403
0.152847
0.385474
0.319273
0.222166
0.428157
0.224456
0.464120
0.150381
0.435233
0.109591
0.483003
0.033568
0.488903
0.100204
0.438021
0.224111
0.469131
0.175830
0.443299
0.159509
0.497771
0.203355
0.522436
0.436900
0.618247
0.647092
0.620597
0.581763
0.322851
0.396468
0.228858
0.427779
0.108056
0.480802
0.028436
0.489048
0.365548
0.420186
3.634677
2.220653
0.584165
0.207876
0.388709
0.101931
0.424983
0.157856
0.350573
0.228252
0.273440
0.301057
0.231522
0.326090
0.228539
0.518103
0.332489
0.617633
0.358458
0.500362
0.407489
0.390832
0.341885
0.426112
0.145007
0.340816
0.146489
0.393381
0.306317
0.225098
0.410639
0.220900
0.446044
0.128872
0.421497
0.085183
0.480251
0.018260
0.487868
0.088997
0.432744
0.225171
0.475686
0.187727
0.444550
0.149693
0.494202
0.203443
0.516193
0.403446
0.582321
0.574106
0.562100
0.561245
0.328366
0.374947
0.255020
0.421700
0.090810
0.479126
0.018749
0.489218
0.366087
0.420733
3.635141
2.221701
0.589395
0.197986
0.384398
0.085294
0.421330
0.147418
0.345812
0.220371
0.266352
0.294753
0.220654
0.330449
0.236495
0.536434
0.349440
0.616970
0.373130
0.498808
0.422696
0.393405
0.350506
0.427932
0.146110
0.345793
0.133533
0.397858
0.293076
0.225360
0.393654
0.216289
0.430893
0.116724
0.414407
0.081839
0.480134
0.028032
0.487425
0.075027
0.425861
0.202895
0.456474
0.157997
0.460436
0.177917
0.485512
0.209465
0.504411
0.362444
0.542041
0.506765
0.495491
0.533491
0.306788
0.368209
0.239902
0.419480
0.087110
0.479387
0.034486
0.490333
0.367626
0.421976
3.634559
2.221289
0.590155
0.195252
0.384564
0.089359
0.422583
0.151752
0.348601
0.228092
0.278087
0.311899
0.240452
0.341447
0.260840
0.551026
0.364477
0.620066
0.379087
0.494334
0.424032
0.389725
0.352337
0.427487
0.141253
0.343877
0.113818
0.397435
0.288176
0.227918
0.389180
0.222371
0.434043
0.154367
0.431380
0.147360
0.492880
0.105285
0.495740
0.104510
0.426528
0.160113
0.407029
0.102816
0.515231
0.274010
0.481098
0.256269
0.497481
0.316084
0.493629
0.463059
0.455949
0.492465
0.246544
0.397184
0.166143
0.434022
0.140123
0.490842
0.108679
0.500655
0.380958
0.433320
3.635001
2.222264
0.594905
0.203825
0.389889
0.111670
0.428151
0.167217
0.356064
0.240589
0.290278
0.325132
0.255818
0.352379
0.278965
0.561585
0.377177
0.624414
0.386682
0.494435
0.430651
0.390490
0.355963
0.428275
0.141145
0.344864
0.105271
0.399682
0.287501
0.233601
0.388959
0.231268
0.438325
0.178128
0.442739
0.179406
0.502593
0.141496
0.503707
0.132526
0.431717
0.156710
0.393696
0.109519
0.506474
0.249060
0.486021
0.264265
0.484679
0.274300
0.456823
0.393920
0.390087
0.471098
0.236814
0.409974
0.146473
0.444627
0.169943
0.500014
0.144487
0.509589
0.392581
0.443492
3.635670
2.223647
0.601279
0.217189
0.398066
0.139112
0.436491
0.188273
0.366972
0.257738
0.306453
0.341848
0.275094
0.366300
0.300500
0.573863
0.392294
0.630524
0.395670
0.495582
0.437662
0.391767
0.359714
0.429274
0.141658
0.346134
0.098665
0.402571
0.288802
0.241571
0.391002
0.243523
0.445163
0.205031
0.456791
0.213052
0.514850
0.178145
0.514191
0.163929
0.439895
0.161799
0.384169
0.136188
0.486135
0.203675
0.490707
0.270172
0.469902
0.227068
0.417824
0.328326
0.334011
0.446868
0.234118
0.420744
0.134464
0.457859
0.202010
0.511689
0.180851
0.521060
0.407348
0.456555
3.636593
2.225477
0.609368
0.234752
0.409051
0.169507
0.447558
0.213494
0.381148
0.278821
0.326107
0.361605
0.297565
0.383018
0.324874
0.587897
0.409696
0.638367
0.406084
0.497816
0.445137
0.393602
0.363631
0.430501
0.142833
0.347717
0.094488
0.406143
0.292013
0.251681
0.395224
0.258740
0.454391
0.234036
0.473267
0.247706
0.529525
0.215176
0.527116
0.197306
0.450980
0.174337
0.377923
0.168532
0.471298
0.167416
0.494643
0.281431
0.458017
0.181314
0.379930
0.287416
0.311018
0.412827
0.237952
0.429739
0.130981
0.473477
0.235518
0.525764
0.217662
0.534980
0.425025
0.472354
3.637782
2.227771
0.619152
0.255891
0.422757
0.201787
0.461269
0.241786
0.398365
0.303171
0.348777
0.384037
0.322706
0.402228
0.351494
0.603449
0.429012
0.647890
0.417744
0.501156
0.453000
0.395989
0.367670
0.431945
0.144661
0.349604
0.093241
0.410364
0.297193
0.263714
0.401722
0.276518
0.466023
0.264563
0.492009
0.283071
0.546462
0.252510
0.542362
0.231979
0.464889
0.192990
0.374833
0.200878
0.459798
0.138720
0.498618
0.250263
0.454455
0.155061
0.350275
0.294278
0.337997
0.392219
0.248999
0.438785
0.135228
0.491300
0.270027
0.542093
0.254808
0.551197
0.445310
0.490667
3.639250
2.230540
0.630573
0.279964
0.439021
0.235335
0.477468
0.272317
0.418324
0.330155
0.373985
0.408756
0.350024
0.423593
0.379844
0.612130
0.444166
0.659012
0.430459
0.505603
0.461173
0.398917
0.371784
0.433594
0.147121
0.351781
0.095184
0.415189
0.304339
0.277422
0.410529
0.296441
0.480008
0.296192
0.512814
0.318920
0.565465
0.290048
0.559761
0.267531
0.481461
0.216326
0.374925
0.231597
0.450351
0.119308
0.504275
0.212833
0.463144
0.170678
0.338901
0.344027
0.402308
0.367923
0.267919
0.450366
0.146258
0.511138
0.305227
0.560490
0.292174
0.569521
0.467869
0.511228
3.641010
2.233805
0.643608
0.306400
0.457641
0.269786
0.495965
0.304495
0.440699
0.359225
0.401275
0.433004
0.379057
0.446827
0.371585
0.596240
0.424216
0.651978
0.443630
0.511149
0.469649
0.402394
0.375968
0.435445
0.150197
0.354251
0.100204
0.420604
0.313321
0.292576
0.421514
0.318123
0.496151
0.304940
0.496424
0.305960
0.574938
0.327722
0.579130
0.303697
0.500475
0.243040
0.378118
0.260368
0.442335
0.113168
0.514097
0.180209
0.485083
0.223071
0.351398
0.326647
0.411267
0.357520
0.296120
0.437436
0.163471
0.524626
0.332908
0.580759
0.329688
0.589758
0.492392
0.533781
3.643090
2.237604
0.658287
0.334767
0.478423
0.304954
0.516580
0.337939
0.465199
0.389962
0.403513
0.406040
0.358805
0.458211
0.344457
0.581702
0.405919
0.641887
0.432594
0.517787
0.478498
0.406446
0.380262
0.437510
0.153887
0.357037
0.107898
0.426625
0.310226
0.289006
0.425124
0.320202
0.483036
0.272453
0.476613
0.270155
0.555226
0.297153
0.576967
0.328251
0.521697
0.272120
0.384203
0.288152
0.435580
0.121976
0.530282
0.160038
0.484614
0.291232
0.384756
0.334418
0.439512
0.368005
0.335058
0.417044
0.186681
0.503460
0.297584
0.561498
0.298036
0.573832
0.473685
0.517364
3.645516
2.241975
0.674627
0.364779
0.501210
0.332348
0.525902
0.341682
0.457383
0.360806
0.375677
0.380740
0.329562
0.436267
0.319274
0.568767
0.389651
0.633431
0.422688
0.525508
0.487756
0.411091
0.383118
0.437029
0.158173
0.360150
0.117781
0.427314
0.299066
0.274948
0.409524
0.298441
0.465371
0.240600
0.458921
0.234741
0.537404
0.260587
0.558327
0.292484
0.514762
0.303010
0.393079
0.308122
0.430543
0.143796
0.554077
0.158985
0.465424
0.335266
0.430038
0.361851
0.479635
0.398318
0.382762
0.395724
0.215601
0.484025
0.262611
0.543350
0.261775
0.555702
0.451438
0.496971
3.648297
2.246925
0.692522
0.362077
0.483452
0.298459
0.505314
0.309246
0.434016
0.331653
0.349545
0.357464
0.301808
0.416117
0.296585
0.557647
0.375765
0.626679
0.414087
0.521292
0.497323
0.416291
0.381795
0.435829
0.162993
0.363563
0.128535
0.423462
0.289435
0.262394
0.395527
0.278215
0.449540
0.209654
0.443545
0.199919
0.521685
0.224319
0.541576
0.256974
0.493617
0.335593
0.405115
0.282219
0.428473
0.174431
0.541108
0.176239
0.453981
0.308430
0.479145
0.397945
0.522518
0.440761
0.435021
0.375933
0.249009
0.466545
0.228195
0.527189
0.225883
0.539591
0.431359
0.478715
3.651439
2.252456
0.685347
0.333618
0.463149
0.264886
0.486471
0.277742
0.412598
0.304243
0.325602
0.336698
0.276103
0.398007
0.276918
0.548262
0.364354
0.621677
0.406745
0.515011
0.507124
0.422011
0.380554
0.434825
0.163668
0.367253
0.114878
0.420179
0.281617
0.251559
0.383488
0.259923
0.435907
0.180176
0.430811
0.166080
0.508265
0.188515
0.526902
0.221920
0.474449
0.328311
0.420792
0.255963
0.431041
0.210323
0.528783
0.204689
0.449471
0.291304
0.473912
0.434558
0.561937
0.486527
0.486992
0.360194
0.285442
0.451319
0.194658
0.513203
0.190552
0.525674
0.413753
0.462838
3.654349
2.249566
0.674327
0.306403
0.444709
0.231949
0.469668
0.247682
0.393543
0.279209
0.304460
0.319008
0.253187
0.382264
0.260939
0.540622
0.355571
0.618460
0.400684
0.509730
0.515411
0.420816
0.379375
0.434014
0.160952
0.366643
0.102333
0.417467
0.275838
0.242692
0.373707
0.244067
0.424789
0.153122
0.421007
0.134039
0.497354
0.153596
0.514525
0.187733
0.457598
0.293699
0.440520
0.228450
0.440055
0.249862
0.518015
0.238186
0.450379
0.281499
0.456404
0.467608
0.594570
0.529913
0.534941
0.350434
0.323514
0.438663
0.162648
0.501604
0.156249
0.514155
0.398977
0.449622
3.652364
2.246508
0.664726
0.280982
0.428486
0.200190
0.455227
0.219844
0.377305
0.257365
0.286819
0.304969
0.233946
0.369267
0.249372
0.534817
0.349620
0.617044
0.395989
0.505509
0.515353
0.418570
0.378273
0.433401
0.158774
0.365572
0.091430
0.415358
0.272221
0.236041
0.366371
0.231203
0.416396
0.130054
0.414328
0.105477
0.489143
0.120475
0.504657
0.155172
0.443407
0.259520
0.464594
0.199537
0.456803
0.291868
0.510225
0.273145
0.455443
0.277164
0.441587
0.495530
0.618817
0.567794
0.577003
0.347491
0.354351
0.428858
0.133371
0.492593
0.123969
0.505234
0.387402
0.439347
3.650665
2.243938
0.656769
0.258106
0.414865
0.170555
0.443477
0.195390
0.364358
0.239696
0.273397
0.295085
0.219325
0.359440
0.242914
0.531067
0.346774
0.617423
0.392845
0.502410
0.515654
0.416857
0.377307
0.433006
0.157198
0.364791
0.082833
0.413914
0.270743
0.231839
0.361499
0.221891
0.410763
0.113325
0.410819
0.083937
0.483782
0.091351
0.497500
0.125721
0.432193
0.226247
0.458347
0.171773
0.481071
0.334517
0.506358
0.307795
0.463843
0.277613
0.428840
0.518489
0.634364
0.598577
0.612213
0.350878
0.319009
0.422106
0.109133
0.486349
0.096003
0.499095
0.379384
0.432279
3.649269
2.241882
0.650580
0.238652
0.404184
0.144540
0.434694
0.175856
0.355111
0.227232
0.264858
0.289769
0.210291
0.353075
0.241918
0.529394
0.347064
0.619561
0.391286
0.500467
0.516329
0.415699
0.376483
0.432829
0.156249
0.364310
0.077347
0.413147
0.271415
0.230213
0.359182
0.216596
0.407992
0.105907
0.410519
0.075519
0.481355
0.071294
0.493181
0.102208
0.424235
0.194921
0.431068
0.150984
0.511266
0.355858
0.506654
0.341405
0.475271
0.283570
0.418842
0.487248
0.637681
0.616424
0.625089
0.359459
0.285321
0.418535
0.093891
0.482978
0.077182
0.495842
0.375149
0.428573
3.648178
2.240337
0.646180
0.223615
0.396718
0.124536
0.429081
0.163071
0.349876
0.220882
0.261704
0.289299
0.207649
0.350299
0.246302
0.529616
0.350266
0.623400
0.391185
0.499684
0.517295
0.415074
0.375749
0.432852
0.155919
0.364107
0.075723
0.413014
0.274305
0.231170
0.359605
0.215608
0.408268
0.109736
0.413481
0.084146
0.481879
0.068536
0.491756
0.089454
0.419759
0.167418
0.406632
0.143498
0.504139
0.300126
0.510659
0.300877
0.490004
0.297087
0.414197
0.437763
0.592555
0.587085
0.603872
0.372100
0.253497
0.418212
0.092148
0.482513
0.074542
0.495493
0.374773
0.428272
3.647402
2.239317
0.643630
0.214062
0.392709
0.113924
0.426801
0.158757
0.348862
0.221205
0.264143
0.293697
0.211664
0.351178
0.255680
0.531619
0.356166
0.628866
0.392468
0.500065
0.518521
0.414979
0.375084
0.433063
0.156201
0.364174
0.078224
0.413493
0.279358
0.234644
0.362805
0.218972
0.411629
0.123731
0.419627
0.105604
0.485321
0.084665
0.493242
0.092084
0.418912
0.146469
0.386310
0.151754
0.474940
0.244826
0.517898
0.247544
0.508335
0.318999
0.417227
0.388076
0.543564
0.552048
0.576489
0.387804
0.223933
0.421119
0.104516
0.484946
0.089408
0.498031
0.378235
0.431354
3.646967
2.238857
0.643055
0.210923
0.392344
0.115566
0.427961
0.163701
0.352145
0.228200
0.272007
0.302700
0.221921
0.355725
0.269471
0.535404
0.364609
0.635863
0.395146
0.501612
0.520053
0.415435
0.374509
0.433465
0.157102
0.364525
0.084452
0.414596
0.286378
0.240507
0.368624
0.226475
0.417914
0.144839
0.428731
0.133698
0.491592
0.111740
0.497615
0.109040
0.421733
0.135319
0.371062
0.171776
0.453518
0.190730
0.528295
0.193796
0.484914
0.304740
0.428339
0.342803
0.494494
0.513750
0.543528
0.405776
0.197329
0.427142
0.126866
0.490221
0.115154
0.503405
0.385420
0.437737
3.646905
2.239009
0.644618
0.214696
0.395734
0.129266
0.432603
0.177267
0.359655
0.241316
0.284822
0.315841
0.237521
0.363882
0.287010
0.541044
0.375474
0.644284
0.399287
0.504328
0.521987
0.416480
0.374079
0.434033
0.158635
0.365186
0.093600
0.416355
0.295083
0.248582
0.376774
0.237698
0.426829
0.170271
0.440469
0.164921
0.500560
0.143701
0.504814
0.135092
0.428161
0.136154
0.361338
0.197884
0.439989
0.138081
0.541920
0.142011
0.457668
0.247583
0.435574
0.306198
0.449051
0.474805
0.506808
0.425313
0.174777
0.436089
0.154884
0.498247
0.146150
0.511530
0.396134
0.447285
3.647225
2.239781
0.648312
0.225109
0.402812
0.151844
0.440627
0.197698
0.371132
0.259614
0.301938
0.332604
0.257484
0.375378
0.307552
0.548378
0.388429
0.654020
0.404770
0.508179
0.524287
0.418098
0.373772
0.431330
0.160765
0.366143
0.104881
0.418735
0.305319
0.258614
0.387121
0.252110
0.438230
0.198312
0.454616
0.197706
0.512048
0.177838
0.514695
0.165976
0.438038
0.148379
0.357084
0.226675
0.433584
0.088020
0.536206
0.097472
0.437848
0.201053
0.400291
0.281024
0.410720
0.437842
0.468322
0.445742
0.157753
0.447742
0.185956
0.508862
0.179603
0.522243
0.410051
0.459759
3.647921
2.241159
0.654047
0.241302
0.413373
0.179934
0.451826
0.223050
0.386182
0.282030
0.322630
0.352446
0.280875
0.389823
0.330388
0.557141
0.391456
0.656644
0.411390
0.513108
0.526864
0.420243
0.368275
0.428861
0.163432
0.367365
0.117665
0.421671
0.316972
0.270315
0.399570
0.269144
0.452000
0.227957
0.470966
0.231298
0.525839
0.212962
0.527058
0.199363
0.451123
0.169233
0.357996
0.256592
0.433362
0.046486
0.520401
0.074473
0.426181
0.169849
0.376868
0.266175
0.382896
0.405426
0.430200
0.448566
0.147796
0.461845
0.218686
0.521855
0.214215
0.535322
0.426775
0.474852
3.649002
2.243150
0.661771
0.262223
0.427153
0.211321
0.465950
0.251790
0.404364
0.307602
0.346191
0.374811
0.306846
0.406844
0.354945
0.547048
0.365740
0.643372
0.401275
0.519058
0.529691
0.422892
0.362388
0.426611
0.162513
0.368838
0.127919
0.423214
0.329852
0.283412
0.413904
0.288266
0.467900
0.258551
0.489239
0.265264
0.541694
0.248524
0.541683
0.234093
0.467110
0.195733
0.363607
0.287120
0.438309
0.044564
0.511596
0.081842
0.422286
0.157645
0.366724
0.258705
0.369013
0.380215
0.394753
0.423482
0.145804
0.478102
0.252320
0.536998
0.249373
0.550539
0.445913
0.492250
3.650489
2.245786
0.671510
0.286908
0.443882
0.244770
0.482745
0.282872
0.425251
0.335550
0.371996
0.399172
0.334684
0.426128
0.375167
0.525524
0.341292
0.627461
0.384396
0.525977
0.532819
0.426048
0.356570
0.424581
0.157656
0.366187
0.116815
0.416442
0.325846
0.292111
0.429787
0.309016
0.485574
0.289647
0.509095
0.299330
0.559373
0.284266
0.558355
0.269580
0.485673
0.225716
0.373336
0.307810
0.447476
0.079662
0.509752
0.091562
0.422008
0.159570
0.369760
0.265264
0.375796
0.364318
0.364894
0.402582
0.151429
0.496206
0.286433
0.554066
0.284787
0.567676
0.467111
0.511667
3.652413
2.249106
0.683295
0.314571
0.463289
0.279603
0.501967
0.315623
0.448463
0.365300
0.399552
0.425103
0.363872
0.447406
0.347307
0.505313
0.318392
0.612315
0.368499
0.520441
0.536317
0.423828
0.350862
0.422778
0.153336
0.362878
0.107581
0.410271
0.320771
0.277118
0.432886
0.329357
0.504687
0.320942
0.524478
0.329875
0.578662
0.320074
0.576877
0.305532
0.506501
0.257879
0.386622
0.278879
0.460010
0.115487
0.512666
0.082116
0.423819
0.186037
0.394052
0.314193
0.417110
0.359764
0.343656
0.385889
0.163174
0.515880
0.320805
0.572858
0.320325
0.586539
0.490071
0.532851
3.654768
2.253098
0.696980
0.344476
0.485031
0.315319
0.523317
0.349522
0.473615
0.386446
0.405353
0.420224
0.376411
0.461534
0.321146
0.486659
0.297392
0.598113
0.353797
0.513422
0.537109
0.418877
0.345325
0.421213
0.149614
0.359889
0.100627
0.404758
0.317307
0.263580
0.423192
0.307478
0.493677
0.291836
0.507279
0.297196
0.560660
0.298909
0.578424
0.328363
0.529300
0.291460
0.403044
0.253695
0.474980
0.142443
0.516357
0.077036
0.441376
0.280167
0.468030
0.438246
0.509069
0.370178
0.334165
0.372977
0.179162
0.523288
0.316342
0.566649
0.300710
0.572643
0.470356
0.513112
3.657540
2.257734
0.712367
0.376015
0.508745
0.341440
0.527833
0.338989
0.452494
0.355309
0.377930
0.396063
0.348254
0.437339
0.296953
0.469529
0.278443
0.584764
0.340278
0.507486
0.530499
0.414467
0.339922
0.419870
0.146503
0.357203
0.096408
0.399876
0.315522
0.251651
0.415499
0.287219
0.480767
0.263999
0.492021
0.265418
0.543123
0.262144
0.559220
0.291475
0.507102
0.325956
0.422209
0.232760
0.491410
0.156147
0.517022
0.166250
0.511371
0.469933
0.626584
0.637394
0.655841
0.401234
0.339886
0.363025
0.197885
0.504133
0.282230
0.548070
0.264009
0.554292
0.447936
0.492700
3.660734
2.263014
0.729345
0.377605
0.490656
0.304502
0.505530
0.304437
0.428357
0.325849
0.352543
0.374057
0.321918
0.414883
0.275115
0.453918
0.261745
0.572196
0.327952
0.502646
0.524116
0.410588
0.334622
0.418732
0.144010
0.354806
0.095245
0.395607
0.315460
0.241507
0.409969
0.268908
0.470074
0.237852
0.478900
0.234851
0.527615
0.225643
0.541984
0.255041
0.486361
0.338660
0.443679
0.216570
0.508321
0.151863
0.514191
0.339728
0.666617
0.743479
0.873255
0.897018
0.853501
0.458195
0.363988
0.354979
0.218445
0.486866
0.248892
0.531451
0.227554
0.537953
0.427683
0.474440
3.664368
2.268959
0.721312
0.345863
0.468025
0.268104
0.485333
0.271115
0.406554
0.298546
0.329635
0.354571
0.297859
0.394453
0.256116
0.439911
0.247597
0.560429
0.316901
0.498915
0.517973
0.407251
0.329427
0.417793
0.142150
0.352699
0.097165
0.391954
0.317066
0.233323
0.406647
0.252923
0.461715
0.213934
0.468050
0.205936
0.514283
0.189477
0.526892
0.219265
0.468043
0.305660
0.467026
0.205430
0.523779
0.121801
0.515260
0.578647
0.910941
1.084810
1.192638
1.155826
1.042899
0.545615
0.407784
0.347848
0.240540
0.471635
0.216631
0.516952
0.191407
0.523785
0.409876
0.458552
3.666096
2.264212
0.706187
0.315802
0.447667
0.232564
0.467532
0.239544
0.387460
0.273985
0.309659
0.337914
0.276529
0.376395
0.240477
0.427717
0.236386
0.549607
0.307308
0.496299
0.512163
0.404489
0.324387
0.417054
0.140947
0.350902
0.101843
0.388947
0.320152
0.227241
0.405400
0.239631
0.455639
0.192842
0.459468
0.179225
0.503230
0.153722