# vtk DataFile Version 2.0
Comment goes here
ASCII
DATASET UNSTRUCTURED_GRID
POINTS 6500 float
47.627109 -1.447738 9.722304 
46.226771 -0.948291 9.779632 
44.592438 -0.371416 9.839755 
42.983387 0.146854 9.874006 
41.495104 0.377033 9.880858 
39.889791 0.371044 9.885626 
38.288775 0.189021 9.890325 
36.704615 -0.092168 9.888740 
35.120812 -0.355066 9.875610 
33.533547 -0.596196 9.851003 
31.949837 -0.834423 9.811471 
30.354560 -1.000152 9.752546 
28.859172 -0.492801 9.696637 
27.407553 0.193823 9.535437 
25.887051 0.317266 9.112014 
24.424580 0.187416 8.461895 
23.053754 0.150284 7.646851 
21.754262 0.315717 6.713884 
20.485327 0.452403 5.722972 
19.223880 0.297839 4.736954 
17.950000 0.320100 3.741997 
16.650016 0.503936 2.840300 
15.197178 0.367167 2.169100 
13.647043 0.091451 1.898549 
12.134018 0.171085 2.156706 
10.696507 0.572991 2.803210 
9.354204 0.872984 3.659793 
8.121304 0.781149 4.644756 
6.900274 0.398785 5.659274 
5.689984 -0.055534 6.605333 
4.389965 -0.317200 7.537105 
3.181393 0.041088 8.279157 
2.037608 1.176006 8.681625 
1.089649 2.653543 8.650776 
0.159806 3.852873 8.568766 
-1.163275 3.859157 8.893209 
-2.469108 2.861042 9.361231 
-3.724377 1.937431 9.646090 
-5.173518 1.235009 9.790837 
-6.737775 1.005978 9.817785 
-8.339940 1.020826 9.786939 
-9.902623 1.305312 9.670379 
-11.449644 1.644177 9.418022 
-13.003094 1.497011 9.045370 
-14.483531 1.057233 8.637442 
-15.974444 0.516836 8.307695 
-17.509911 0.083737 8.104641 
-19.080340 -0.115282 8.013133 
-20.686945 -0.139600 7.980108 
-22.294078 -0.112566 7.977373 
-23.898173 -0.097841 8.002031 
-25.497884 -0.043118 8.077110 
-27.024158 0.337109 8.264651 
-28.503485 0.943713 8.564517 
-29.966712 1.471964 8.939062 
-31.425513 2.032455 9.238485 
-32.775004 3.040053 9.173683 
-34.128477 3.025556 9.280975 
-35.503999 2.054918 9.604282 
-36.986704 1.531045 9.739253 
-38.569357 1.361751 9.771073 
-40.176694 1.347823 9.774976 
-41.734177 1.400125 9.768552 
-43.476511 1.456792 9.761334 
47.627109 -0.844292 9.769754 
46.226771 -0.344510 9.795981 
44.592438 0.232367 9.820194 
42.983387 0.749344 9.822200 
41.495104 0.978070 9.814565 
39.889791 0.971679 9.819336 
38.288775 0.790224 9.834929 
36.704615 0.509877 9.850433 
35.120812 0.247179 9.853311 
33.533547 0.005484 9.843337 
31.949837 -0.234219 9.818159 
30.354560 -0.402883 9.769168 
28.859172 0.098086 9.682324 
27.407553 0.770316 9.480286 
25.887051 0.866366 9.052043 
24.424580 0.698411 8.413409 
23.053754 0.613146 7.605007 
21.754262 0.722088 6.666792 
20.485327 0.798086 5.672251 
19.223880 0.583333 4.699810 
17.950000 0.544272 3.707646 
16.650016 0.672249 2.798577 
15.197178 0.495209 2.138501 
13.647043 0.205768 1.886196 
12.134018 0.300811 2.138181 
10.696507 0.739044 2.756853 
9.354204 1.089271 3.591096 
8.121304 1.057622 4.577051 
6.900274 0.739016 5.610461 
5.689984 0.344789 6.580180 
4.389965 0.140941 7.523244 
3.181393 0.541976 8.239368 
2.037608 1.695170 8.570215 
1.089649 3.163433 8.449012 
0.159806 4.352189 8.293893 
-1.163275 4.379286 8.616059 
-2.469108 3.415558 9.142933 
-3.724377 2.514326 9.483321 
-5.173518 1.824480 9.670643 
-6.737775 1.598534 9.711704 
-8.339940 1.611968 9.680604 
-9.902623 1.888081 9.547570 
-11.449644 2.211039 9.276113 
-13.003094 2.046144 8.916002 
-14.483531 1.588140 8.540209 
-15.974444 1.031588 8.249034 
-17.509911 0.586118 8.077068 
-19.080340 0.378838 8.000618 
-20.686945 0.348693 7.969957 
-22.294078 0.370713 7.964942 
-23.898173 0.381699 7.988089 
-25.497884 0.435753 8.059288 
-27.024158 0.822001 8.221127 
-28.503485 1.443909 8.478591 
-29.966712 1.995590 8.814194 
-31.425513 2.575677 9.073990 
-32.775004 3.578540 8.945023 
-34.128477 3.573634 9.051734 
-35.503999 2.629005 9.433423 
-36.986704 2.116926 9.600366 
-38.569357 1.951138 9.642848 
-40.176694 1.937997 9.647914 
-41.734177 1.989852 9.638525 
-43.476511 2.045800 9.628027 
47.627109 -0.296004 9.781086 
46.226771 0.202457 9.779155 
44.592438 0.777459 9.770876 
42.983387 1.291583 9.743771 
41.495104 1.518241 9.723091 
39.889791 1.511493 9.727857 
38.288775 1.331131 9.753246 
36.704615 1.052451 9.784141 
35.120812 0.790780 9.801473 
33.533547 0.549348 9.804748 
31.949837 0.309072 9.792614 
30.354560 0.138283 9.752748 
28.859172 0.631853 9.638238 
27.407553 1.288917 9.399998 
25.887051 1.359928 8.968853 
24.424580 1.158089 8.342685 
23.053754 1.029623 7.542870 
21.754262 1.087183 6.602913 
20.485327 1.108094 5.608290 
19.223880 0.839620 4.651252 
17.950000 0.745241 3.664835 
16.650016 0.822300 2.752075 
15.197178 0.609410 2.104186 
13.647043 0.308489 1.869137 
12.134018 0.417150 2.114744 
10.696507 0.886798 2.706303 
9.354204 1.281303 3.517658 
8.121304 1.304149 4.501313 
6.900274 1.044208 5.548444 
5.689984 0.705582 6.536395 
4.389965 0.554635 7.486605 
3.181393 0.992983 8.176990 
2.037608 2.158941 8.442060 
1.089649 3.614052 8.239600 
0.159806 4.789386 8.018904 
-1.163275 4.835193 8.337932 
-2.469108 3.905675 8.916252 
-3.724377 3.027612 9.305702 
-5.173518 2.351383 9.530880 
-6.737775 2.128970 9.584558 
-8.339940 2.141105 9.553335 
-9.902623 2.408773 9.405885 
-11.449644 2.716319 9.118155 
-13.003094 2.535990 8.770720 
-14.483531 2.063082 8.425383 
-15.974444 1.493802 8.170265 
-17.509911 1.038636 8.027286 
-19.080340 0.824584 7.965037 
-20.686945 0.789273 7.936859 
-22.294078 0.806673 7.929957 
-23.898173 0.814254 7.951776 
-25.497884 0.867567 8.019310 
-27.024158 1.258028 8.157380 
-28.503485 1.891683 8.375439 
-29.966712 2.462608 8.674260 
-31.425513 3.058387 8.896808 
-32.775004 4.053604 8.709848 
-34.128477 4.057349 8.815475 
-35.503999 3.139324 9.248621 
-36.986704 2.639595 9.443899 
-38.569357 2.477536 9.495878 
-40.176694 2.465165 9.501983 
-41.734177 2.516457 9.489949 
-43.476511 2.571581 9.476528 
47.627109 0.375556 9.785598 
46.226771 0.871920 9.749209 
44.592438 1.444072 9.701171 
42.983387 1.954206 9.638467 
41.495104 2.178109 9.601842 
39.889791 2.170927 9.606600 
38.288775 1.992074 9.643957 
36.704615 1.715701 9.693663 
35.120812 1.455539 9.728673 
33.533547 1.214658 9.748163 
31.949837 0.973906 9.752005 
30.354560 0.800673 9.723345 
28.859172 1.284711 9.575080 
27.407553 1.922582 9.292764 
25.887051 1.962880 8.858499 
24.424580 1.719758 8.248200 
23.053754 1.538533 7.459656 
21.754262 1.533145 6.518456 
20.485327 1.486600 5.524681 
19.223880 1.152610 4.587412 
17.950000 0.990594 3.608980 
16.650016 1.005238 2.692584 
15.197178 0.748656 2.060237 
13.647043 0.433968 1.846523 
12.134018 0.559193 2.084090 
10.696507 1.066853 2.641904 
9.354204 1.515186 3.424462 
8.121304 1.604724 4.404357 
6.900274 1.416853 5.467277 
5.689984 1.146626 6.476596 
4.389965 1.060583 7.434641 
3.181393 1.544182 8.092859 
2.037608 2.724641 8.277154 
1.089649 4.162250 7.975415 
0.159806 5.320021 7.674650 
-1.163275 5.388685 7.989521 
-2.469108 4.501942 8.630255 
-3.724377 3.653093 9.079386 
-5.173518 2.994189 9.350689 
-6.737775 2.776318 9.419760 
-8.339940 2.786858 9.388418 
-9.902623 3.043934 9.223472 
-11.449644 3.332322 8.916130 
-13.003094 3.133287 8.584598 
-14.483531 2.642611 8.276937 
-15.974444 2.058317 8.066279 
-17.509911 1.591730 7.959023 
-19.080340 1.369600 7.914319 
-20.686945 1.327999 7.889282 
-22.294078 1.339723 7.880125 
-23.898173 1.343130 7.900330 
-25.497884 1.395496 7.963332 
-27.024158 1.790747 8.072167 
-28.503485 2.438152 8.241704 
-29.966712 3.032046 8.495059 
-31.425513 3.646425 8.671619 
-32.775004 4.631290 8.413720 
-34.128477 4.645613 8.517854 
-35.503999 3.761050 9.013557 
-36.986704 3.276929 9.243332 
-38.569357 3.119596 9.306885 
-40.176694 3.108183 9.314256 
-41.734177 3.158741 9.299000 
-43.476511 3.212805 9.282015 
47.627109 1.059129 9.767986 
46.226771 1.552221 9.696590 
44.592438 2.120162 9.608178 
42.983387 2.625061 9.509369 
41.495104 2.845638 9.456595 
39.889791 2.838020 9.461340 
38.288775 2.661106 9.510808 
36.704615 2.387709 9.579567 
35.120812 2.129674 9.632506 
33.533547 1.889898 9.668469 
31.949837 1.649198 9.688575 
30.354560 1.473855 9.671390 
28.859172 1.947074 9.489074 
27.407553 2.563949 9.162525 
25.887051 2.572881 8.726118 
24.424580 2.288253 8.133390 
23.053754 2.053698 7.358102 
21.754262 1.984197 6.417750 
20.485327 1.869028 5.427085 
19.223880 1.469025 4.512083 
17.950000 1.238440 3.544021 
16.650016 1.189438 2.626025 
15.197178 0.888899 2.010951 
13.647043 0.560891 1.819427 
12.134018 0.702707 2.048271 
10.696507 1.247949 2.570463 
9.354204 1.750117 3.321898 
8.121304 1.907408 4.295730 
6.900274 1.793410 5.372314 
5.689984 1.593505 6.401102 
4.389965 1.573784 7.364947 
3.181393 2.102376 7.988898 
2.037608 3.294912 8.090483 
1.089649 4.711403 7.688275 
0.159806 5.848634 7.306602 
-1.163275 5.940423 7.616495 
-2.469108 5.099293 8.319342 
-3.724377 4.282162 8.828250 
-5.173518 3.642423 9.145924 
-6.737775 3.429684 9.230521 
-8.339940 3.438592 9.199133 
-9.902623 3.684301 9.016764 
-11.449644 3.952519 8.690214 
-13.003094 3.734914 8.375764 
-14.483531 3.227309 8.107333 
-15.974444 2.629095 7.942636 
-17.509911 2.151963 7.872259 
-19.080340 1.922122 7.845777 
-20.686945 1.874207 7.824173 
-22.294078 1.880110 7.812850 
-23.898173 1.879263 7.831442 
-25.497884 1.930574 7.889732 
-27.024158 2.329820 7.968519 
-28.503485 2.989713 8.088053 
-29.966712 3.605558 8.294151 
-31.425513 4.237393 8.423032 
-32.775004 5.209385 8.093140 
-34.128477 5.234431 8.195363 
-35.503999 4.386005 8.753635 
-36.986704 3.918914 9.018023 
-38.569357 3.766770 9.093224 
-40.176694 3.756370 9.101872 
-41.734177 3.806072 9.083370 
-43.476511 3.858939 9.062797 
47.627109 1.694521 9.707164 
46.226771 2.182298 9.603370 
44.592438 2.743701 9.477619 
42.983387 3.241384 9.345511 
41.495104 3.457822 9.277890 
39.889791 3.449811 9.282612 
38.288775 3.275508 9.343195 
36.704615 3.006138 9.429474 
35.120812 2.751262 9.498949 
33.533547 2.513600 9.550162 
31.949837 2.274022 9.585388 
30.354560 2.097476 9.579006 
28.859172 2.558401 9.365657 
27.407553 3.152838 8.999255 
25.887051 3.132407 8.562924 
24.424580 2.810231 7.989371 
23.053754 2.526847 7.229974 
21.754262 2.397678 6.294642 
[...]
POINT_DATA 6500
SCALARS sample_scalars float 1
LOOKUP_TABLE my_table
3.641421
2.241722
0.612381
0.196332
0.358064
0.065162
0.463832
0.142998
0.428446
0.215780
0.379448
0.292888
0.405507
0.086808
0.429631
0.194868
0.441896
0.297793
0.497685
0.352113
0.530191
0.380098
0.301691
0.470230
0.063529
0.426166
0.153245
0.501257
0.148096
0.465077
0.178735
0.428790
0.525542
0.490460
0.458173
0.217005
0.152594
0.466327
0.290920
0.279656
0.249978
0.384098
0.308698
0.447517
0.153834
0.540822
0.238981
0.481020
0.120386
0.377851
0.226679
0.301880
0.246715
0.323021
0.337597
0.364782
0.217386
0.510210
0.315190
0.231747
0.392810
0.339741
0.585322
0.391932
3.635148
2.235747
0.607723
0.194966
0.382090
0.157037
0.470082
0.194119
0.440838
0.188988
0.402318
0.238443
0.412935
0.128276
0.482623
0.228496
0.468761
0.304163
0.519228
0.356222
0.541165
0.378528
0.299715
0.471874
0.081076
0.431925
0.150401
0.505143
0.172412
0.475643
0.218944
0.426783
0.546079
0.509487
0.479628
0.266454
0.163968
0.463956
0.319475
0.259395
0.232075
0.420923
0.308389
0.472309
0.138566
0.549692
0.235488
0.482503
0.129656
0.373216
0.214593
0.298087
0.264891
0.325756
0.320949
0.373201
0.261439
0.488150
0.342618
0.233309
0.432969
0.384520
0.585633
0.392302
3.634700
2.233766
0.613716
0.248759
0.378771
0.149083
0.502853
0.117910
0.438788
0.205288
0.405245
0.275523
0.405671
0.217748
0.482351
0.283599
0.494431
0.305239
0.522296
0.357798
0.542187
0.375825
0.297333
0.472294
0.081215
0.429297
0.155104
0.516206
0.171604
0.473450
0.196208
0.430088
0.530540
0.541672
0.522882
0.352691
0.221119
0.414852
0.292429
0.278710
0.249843
0.388122
0.253469
0.464616
0.185182
0.541095
0.290509
0.506693
0.196634
0.381997
0.216671
0.277553
0.331562
0.361799
0.328701
0.299598
0.317624
0.455390
0.406151
0.297130
0.396367
0.344078
0.595852
0.447949
3.633625
2.242831
0.651863
0.343049
0.359599
0.085478
0.524634
0.106727
0.462402
0.170371
0.407706
0.267082
0.441054
0.259862
0.476102
0.305923
0.536663
0.309541
0.544020
0.367880
0.547504
0.376727
0.298563
0.473425
0.090483
0.429059
0.153974
0.514437
0.187310
0.479236
0.256068
0.458724
0.536330
0.539060
0.517925
0.349063
0.209460
0.424127
0.304713
0.267351
0.238663
0.403544
0.263051
0.474588
0.179561
0.539297
0.293734
0.509999
0.207324
0.381932
0.215951
0.276238
0.358168
0.370432
0.329440
0.305371
0.331665
0.460712
0.406298
0.281191
0.416110
0.365771
0.611437
0.433247
3.636734
2.241408
0.644283
0.308684
0.355790
0.064059
0.507251
0.165710
0.435226
0.269947
0.373855
0.259267
0.482939
0.233193
0.488638
0.301344
0.549144
0.323124
0.558331
0.380864
0.557433
0.381428
0.304682
0.475480
0.089383
0.425397
0.154076
0.503512
0.193149
0.495357
0.197607
0.489201
0.532309
0.519406
0.498157
0.316481
0.184702
0.438018
0.320106
0.258759
0.228556
0.417451
0.275608
0.482609
0.175315
0.533068
0.302161
0.514282
0.218474
0.386897
0.229486
0.284706
0.385006
0.377548
0.338538
0.317532
0.319241
0.467536
0.379177
0.257480
0.438388
0.390272
0.603223
0.413244
3.639050
2.243768
0.655465
0.324341
0.361072
0.090697
0.516918
0.168240
0.439708
0.297896
0.373955
0.234669
0.489643
0.256509
0.506284
0.323520
0.570889
0.332582
0.576774
0.386337
0.568478
0.385823
0.310636
0.477145
0.093631
0.420196
0.158341
0.496568
0.177543
0.501423
0.195235
0.490733
0.513894
0.510604
0.495197
0.326436
0.187967
0.429033
0.313267
0.264406
0.231070
0.403712
0.262007
0.466679
0.209646
0.520874
0.268626
0.535488
0.263122
0.412101
0.275199
0.307203
0.374040
0.398488
0.357679
0.302561
0.331923
0.461204
0.388764
0.267994
0.429733
0.381431
0.611386
0.423297
3.640375
2.249633
0.686245
0.332458
0.388992
0.176308
0.554853
0.113163
0.481838
0.219740
0.379635
0.300922
0.480396
0.316632
0.536053
0.376765
0.589534
0.340199
0.571069
0.381899
0.571601
0.389529
0.315450
0.478305
0.077547
0.415073
0.174113
0.503711
0.131049
0.496721
0.263617
0.460420
0.480754
0.537837
0.537349
0.279393
0.259856
0.385554
0.276401
0.308773
0.272641
0.345816
0.218396
0.420561
0.293097
0.493984
0.141933
0.501446
0.231653
0.449895
0.341028
0.362669
0.326661
0.405907
0.402332
0.251258
0.248825
0.439879
0.353124
0.346481
0.367908
0.314460
0.575093
0.445248
3.641403
2.253276
0.702276
0.303307
0.406176
0.213272
0.534898
0.113111
0.502570
0.191847
0.388628
0.332019
0.461273
0.281534
0.551886
0.353830
0.581917
0.348500
0.570645
0.382937
0.571308
0.392234
0.318495
0.479456
0.072380
0.413512
0.183143
0.508268
0.116293
0.498029
0.256494
0.452744
0.473235
0.553747
0.558199
0.247246
0.291315
0.375358
0.271584
0.332004
0.295875
0.329664
0.213802
0.410427
0.237482
0.494353
0.072190
0.481334
0.179581
0.419137
0.299435
0.396267
0.328308
0.393987
0.419606
0.241328
0.219622
0.437660
0.327974
0.377769
0.350247
0.295361
0.561453
0.422559
3.642613
2.257603
0.720151
0.275837
0.426418
0.251140
0.516869
0.125822
0.525576
0.168083
0.401303
0.364808
0.444482
0.247296
0.569491
0.332747
0.575504
0.358817
0.570892
0.384939
0.571205
0.395373
0.318661
0.480781
0.068392
0.412511
0.193370
0.513847
0.105662
0.500758
0.227739
0.447422
0.468778
0.571947
0.543680
0.217212
0.324252
0.368837
0.272097
0.357924
0.322172
0.317405
0.216944
0.403598
0.190363
0.501252
0.039210
0.471152
0.145740
0.405021
0.283135
0.406659
0.345957
0.395405
0.442412
0.237266
0.192337
0.438223
0.305237
0.348722
0.335631
0.279715
0.549854
0.401810
3.644210
2.262567
0.720767
0.251117
0.449198
0.289343
0.501214
0.147987
0.517018
0.150832
0.417180
0.346801
0.430496
0.214690
0.578312
0.314097
0.570376
0.370974
0.571893
0.387925
0.571328
0.398881
0.317404
0.482282
0.065955
0.412154
0.191253
0.511134
0.100563
0.504847
0.200103
0.444561
0.467351
0.580377
0.526522
0.190457
0.357614
0.366220
0.277903
0.385778
0.350654
0.309611
0.226852
0.399468
0.149723
0.510632
0.067632
0.468321
0.134145
0.405005
0.288807
0.408608
0.378068
0.407063
0.465357
0.238074
0.166939
0.441511
0.285698
0.319060
0.324666
0.268377
0.540594
0.383608
3.646195
2.268193
0.708576
0.230013
0.474377
0.328072
0.488092
0.176209
0.495899
0.142314
0.435961
0.314837
0.419456
0.184266
0.560847
0.298261
0.566586
0.384938
0.573697
0.391930
0.571708
0.398267
0.316284
0.483970
0.065342
0.412512
0.181448
0.505046
0.101729
0.510300
0.173955
0.444177
0.469035
0.564145
0.511711
0.167991
0.324175
0.367522
0.288642
0.414593
0.381009
0.306595
0.242365
0.397837
0.113380
0.519784
0.111495
0.472394
0.149086
0.417456
0.312204
0.425161
0.424198
0.427006
0.480636
0.244052
0.143858
0.447554
0.269849
0.290980
0.317609
0.261799
0.533720
0.368179
3.648565
2.269255
0.698043
0.213936
0.480248
0.316935
0.477819
0.208041
0.477055
0.144154
0.457177
0.284626
0.411634
0.157387
0.545300
0.285852
0.564282
0.400414
0.576165
0.396849
0.572256
0.395823
0.315253
0.484022
0.066689
0.413617
0.172782
0.500178
0.109063
0.517095
0.150192
0.446282
0.473867
0.550349
0.499573
0.151764
0.292057
0.372643
0.303675
0.385802
0.381297
0.308557
0.262158
0.398680
0.081700
0.515726
0.158941
0.484851
0.189416
0.442718
0.351212
0.453787
0.483776
0.454421
0.499728
0.256616
0.125818
0.456389
0.258389
0.265118
0.314747
0.260382
0.529369
0.355986
3.651333
2.265374
0.689323
0.204079
0.456713
0.281173
0.470530
0.241991
0.460753
0.155968
0.480497
0.256711
0.407166
0.135720
0.531623
0.277112
0.563294
0.409887
0.579152
0.402577
0.572883
0.393656
0.314289
0.483403
0.069945
0.415459
0.165450
0.496588
0.121505
0.525107
0.129977
0.450738
0.481674
0.538985
0.490289
0.143702
0.261541
0.381349
0.322310
0.358727
0.351536
0.315379
0.285091
0.401948
0.060071
0.517808
0.210391
0.507685
0.249250
0.481841
0.404958
0.493104
0.555518
0.489828
0.521314
0.277346
0.117514
0.467978
0.251769
0.242126
0.316162
0.264196
0.527607
0.347381
3.654525
2.262053
0.682396
0.201375
0.435205
0.246097
0.466325
0.277239
0.447185
0.175664
0.487166
0.231764
0.406056
0.121638
0.519771
0.272199
0.563458
0.396700
0.582609
0.409063
0.573560
0.391791
0.313408
0.482889
0.074928
0.418039
0.159633
0.494242
0.137668
0.534218
0.115170
0.457389
0.492139
0.530270
0.483897
0.144867
0.233094
0.393367
0.343943
0.333723
0.323511
0.326732
0.310521
0.407853
0.061499
0.526181
0.266994
0.542156
0.323100
0.535242
0.472503
0.542996
0.635916
0.533883
0.545827
0.306132
0.122538
0.482153
0.250234
0.222803
0.321805
0.273062
0.528485
0.342670
3.658112
2.259298
0.677307
0.206177
0.416220
0.212355
0.465295
0.313071
0.436636
0.200671
0.463743
0.210889
0.408224
0.117631
0.509858
0.271248
0.564718
0.384886
0.586568
0.416262
0.574312
0.390245
0.312611
0.482481
0.081360
0.421400
0.155489
0.493135
0.156223
0.544278
0.108094
0.466023
0.504897
0.524429
0.480339
0.154617
0.207684
0.408256
0.367870
0.311425
0.297893
0.342066
0.338296
0.417320
0.088306
0.540864
0.306214
0.587800
0.405780
0.600622
0.550359
0.602741
0.720210
0.584924
0.573040
0.341200
0.139822
0.498484
0.253779
0.208194
0.331403
0.286462
0.531988
0.342052
3.659003
2.257068
0.674053
0.218143
0.400032
0.180470
0.467467
0.349529
0.429222
0.229320
0.442307
0.195113
0.413564
0.124487
0.501988
0.274334
0.567155
0.374559
0.591065
0.418106
0.575162
0.388965
0.311834
0.482189
0.089005
0.423455
0.153107
0.493363
0.176467
0.537510
0.110098
0.476580
0.519941
0.521368
0.479495
0.171293
0.186134
0.425763
0.393783
0.292173
0.275060
0.361033
0.368825
0.431743
0.129623
0.533516
0.290958
0.592926
0.392901
0.609920
0.567201
0.669293
0.748367
0.639137
0.601397
0.380322
0.165186
0.516699
0.262137
0.199064
0.344644
0.303842
0.538065
0.345494
3.656409
2.255400
0.672786
0.236136
0.387210
0.152095
0.472760
0.314626
0.425178
0.260040
0.423405
0.185814
0.421819
0.140285
0.496301
0.281234
0.570744
0.365981
0.595872
0.410946
0.575982
0.387922
0.311020
0.482017
0.097524
0.421334
0.152571
0.495005
0.197715
0.527801
0.120502
0.488770
0.536933
0.520969
0.481458
0.192837
0.169950
0.445268
0.420909
0.276715
0.255960
0.382885
0.361547
0.452147
0.179261
0.519778
0.285515
0.590016
0.390491
0.611313
0.571190
0.737827
0.766856
0.691382
0.628335
0.400601
0.194455
0.536207
0.274623
0.196158
0.360884
0.324280
0.546511
0.352777
3.654110
2.254296
0.673534
0.258990
0.377849
0.128828
0.481061
0.279097
0.424521
0.292489
0.407085
0.183689
0.432887
0.162266
0.492596
0.291546
0.575311
0.359059
0.600921
0.404382
0.576726
0.387116
0.310172
0.481950
0.090075
0.420081
0.153899
0.498015
0.210931
0.519142
0.137354
0.502534
0.555753
0.523046
0.486125
0.217878
0.160221
0.466701
0.399214
0.265395
0.241139
0.407412
0.329932
0.479712
0.235577
0.509513
0.289731
0.594395
0.401592
0.620732
0.582666
0.741805
0.783437
0.698390
0.651401
0.363313
0.225836
0.529941
0.290731
0.199602
0.379892
0.347433
0.557303
0.363733
3.652164
2.253791
0.676163
0.285135
0.372300
0.114045
0.492006
0.244705
0.427167
0.325584
0.393861
0.188838
0.446264
0.187651
0.490740
0.304542
0.580580
0.353894
0.606097
0.398468
0.577346
0.386561
0.309292
0.481975
0.081628
0.419716
0.156982
0.502270
0.191629
0.511600
0.158366
0.516509
0.559730
0.527697
0.493243
0.244774
0.158177
0.488863
0.373287
0.258851
0.231599
0.433797
0.299240
0.459950
0.296740
0.504455
0.303208
0.605218
0.423698
0.636363
0.599372
0.738340
0.794965
0.681168
0.669088
0.329640
0.257707
0.511858
0.309546
0.208908
0.400939
0.372422
0.570127
0.377864
3.650551
2.253839
0.680591
0.313966
0.370647
0.110878
0.505510
0.211332
0.433004
0.350834
0.383756
0.200609
0.461830
0.215354
0.490738
0.319995
0.586608
0.350513
0.605335
0.393187
0.575161
0.386261
0.308389
0.482094
0.074160
0.420221
0.161701
0.507720
0.174032
0.505088
0.182211
0.499760
0.547985
0.534810
0.502507
0.273025
0.163847
0.466238
0.349209
0.257271
0.227782
0.429297
0.270318
0.430535
0.319055
0.507234
0.325787
0.621195
0.453214
0.655871
0.618648
0.733299
0.799656
0.660820
0.680812
0.299558
0.289910
0.495797
0.330785
0.223350
0.423964
0.399190
0.584999
0.394978
3.649271
2.254419
0.686727
0.344557
0.372979
0.120285
0.521213
0.179954
0.441784
0.316272
0.377071
0.217695
0.479120
0.244216
0.492600
0.337392
0.593363
0.349044
0.595941
0.388645
0.569089
0.386150
0.303205
0.482310
0.068119
0.421661
0.167823
0.514394
0.158810
0.499688
0.207596
0.484591
0.538571
0.544118
0.513702
0.301909
0.176221
0.445617
0.327572
0.260654
0.229918
0.403702
0.245484
0.406503
0.256789
0.520233
0.357253
0.641447
0.487782
0.672445
0.629451
0.725238
0.796897
0.635887
0.648147
0.273903
0.321758
0.482076
0.353697
0.241736
0.448348
0.407729
0.601548
0.414441
3.648304
2.255535
0.694631
0.376601
0.379194
0.139657
0.538984
0.151516
0.453356
0.282534
0.373875
0.238901
0.498022
0.273940
0.496301
0.356506
0.594923
0.349489
0.586729
0.384846
0.562950
0.386215
0.297174
0.482624
0.063918
0.424037
0.175189
0.522263
0.146458
0.495449
0.233977
0.471032
0.531566
0.555257
0.526777
0.331385
0.193787
0.427081
0.308591
0.268690
0.237723
0.380425
0.226886
0.390332
0.193238
0.543848
0.396041
0.659725
0.449961
0.620030
0.568388
0.714082
0.770415
0.605841
0.599477
0.253661
0.319270
0.470638
0.378009
0.263230
0.430946
0.379875
0.619678
0.435970
3.647660
2.257201
0.704186
0.358121
0.388952
0.165157
0.558444
0.127946
0.467404
0.250103
0.374205
0.263002
0.507857
0.303966
0.501540
0.357958
0.577970
0.351684
0.577591
0.381729
0.556666
0.386445
0.291003
0.481451
0.061944
0.427310
0.183576
0.531187
0.137850
0.492382
0.260867
0.459220
0.527125
0.568067
0.541487
0.361064
0.215078
0.410959
0.292821
0.280824
0.250522
0.360114
0.216591
0.383749
0.134260
0.576335
0.364424
0.614925
0.389992
0.570165
0.507416
0.701182
0.698670
0.571523
0.543802
0.240404
0.290781
0.461617
0.403247
0.286925
0.407089
0.353703
0.600842
0.459102
3.647355
2.259417
0.715209
0.324208
0.401919
0.194232
0.549841
0.111896
0.483647
0.219296
0.377968
0.289228
0.487331
0.311854
0.508182
0.330663
0.561470
0.355530
0.568485
0.379272
0.550209
0.381283
0.284713
0.479209
0.062405
0.431396
0.189620
0.540983
0.133630
0.490418
0.270426
0.449158
0.525132
0.582520
0.557550
0.343821
0.239060
0.397383
0.280673
0.296479
0.267509
0.343224
0.215423
0.386872
0.092262
0.536512
0.287138
0.573853
0.334074
0.525814
0.449804
0.623953
0.617189
0.536473
0.482428
0.235720
0.266236
0.455027
0.395440
0.312289
0.385165
0.329542
0.583699
0.456176
3.647388
2.262134
0.727521
0.291737
0.417703
0.225316
0.529442
0.106579
0.501748
0.190796
0.384968
0.316928
0.468608
0.279028
0.516136
0.304425
0.545437
0.360945
0.559483
0.377502
0.543616
0.375630
0.278357
0.477090
0.065232
0.436258
0.180016
0.547698
0.134077
0.489519
0.248010
0.440931
0.525367
0.598416
0.574626
0.322157
0.264825
0.386552
0.272549
0.315015
0.287804
0.330201
0.222788
0.398566
0.090465
0.508175
0.211923
0.539436
0.289078
0.492491
0.402876
0.535872
0.530227
0.505729
0.418214
0.240300
0.246579
0.450856
0.372763
0.338833
0.365526
0.307888
0.568510
0.431988
3.647738
2.265330
0.733677
0.261240
0.435979
0.257645
0.511150
0.113315
0.521462
0.165626
0.394966
0.345684
0.451835
0.246785
0.525442
0.279508
0.529979
0.367908
0.550723
0.376479
0.536972
0.370254
0.271930
0.475108
0.070104
0.441885
0.171738
0.548422
0.138874
0.489691
0.227815
0.434595
0.527760
0.615466
0.592678
0.302699
0.291750
0.378622
0.268667
0.335900
0.310692
0.321360
0.237238
0.417287
0.127916
0.495527
0.147232
0.515961
0.267807
0.478313
0.379273
0.450174
0.445737
0.457404
0.354778
0.253355
0.232309
0.448953
0.351982
0.366260
0.348428
0.289156
0.555354
0.409786
3.648389
2.268990
0.714634
0.233584
0.456303
0.290579
0.495220
0.130039
0.516067
0.145461
0.407619
0.374292
0.437243
0.215350
0.528636
0.256377
0.515335
0.376230
0.542192
0.376165
0.530265
0.365149
0.265403
0.473284
0.076558
0.448209
0.164982
0.550413
0.147471
0.490947
0.210428
0.430214
0.532344
0.633302
0.611590
0.285869
0.319286
0.373739
0.269107
0.358564
0.335474
0.316981
0.257011
0.441433
0.180480
0.498946
0.118351
0.507957
0.281991
0.462553
0.340702
0.380440
0.374793
0.386988
0.296873
0.272855
0.223434
0.449088
0.333477
0.361250
0.334237
0.273905
0.544371
0.389916
3.649350
2.271397
0.697095
0.209607
0.478367
0.323881
0.481733
0.153342
0.495776
0.132284
0.422657
0.347387
0.424918
0.184693
0.506974
0.235292
0.501486
0.385740
0.533795
0.376499
0.523437
0.360325
0.258784
0.471617
0.084175
0.455131
0.159867
0.553612
0.159223
0.493248
0.196246
0.427752
0.538997
0.651966
0.605406
0.272012
0.347370
0.371891
0.273758
0.382688
0.361743
0.317105
0.280589
0.469623
0.237824
0.517403
0.151817
0.518476
0.251269
0.400292
0.249424
0.344279
0.331511
0.342629
0.250736
0.296353
0.219211
0.451055
0.317422
0.334862
0.323227
0.262613
0.535624
0.372643
3.650622
2.265273
0.681220
0.190649
0.463170
0.300237
0.470915
0.180282
0.477709
0.128031
0.439651
0.322498
0.415052
0.155335
0.486459
0.216746
0.488388
0.368761
0.525544
0.377419
0.516496
0.355826
0.252117
0.470104
0.092551
0.462507
0.156505
0.557899
0.173321
0.496463
0.185975
0.427164
0.547430
0.660501
0.599226
0.261631
0.375630
0.372991
0.282239
0.407726
0.388881
0.321532
0.306604
0.500626
0.296641
0.526177
0.222753
0.523956
0.193104
0.378691
0.219963
0.353215
0.325539
0.335467
0.222903
0.321319
0.218642
0.454653
0.304151
0.310343
0.315731
0.255789
0.529245
0.358419
3.652212
2.259747
0.666922
0.177996
0.439935
0.264336
0.462793
0.209511
0.461862
0.133279
0.458497
0.299650
0.407640
0.127551
0.467030
0.201176
0.476062
0.351128
0.517559
0.378984
0.509517
0.351687
0.245471
0.468748
0.089157
0.469678
0.154879
0.563052
0.189080
0.500595
0.180056
0.428406
0.557305
0.656981
0.594569
0.254614
0.354860
0.376941
0.294173
0.390369
0.376770
0.329865
0.334470
0.533829
0.355550
0.523870
0.306426
0.509587
0.207499
0.402954
0.269570
0.375353
0.319145
0.363593
0.215398
0.345815
0.219987
0.459669
0.293755
0.287682
0.311804
0.253589
0.525190
0.347365
3.654069
2.254853
0.654420
0.172963
0.419377
0.229792
0.457536
0.239667
0.448640
0.146717
0.478653
0.279668
0.402868
0.102865
0.449069
0.189369
0.464699
0.334999
0.509974
0.379610
0.502587
0.347900
0.238824
0.467554
0.085728
0.473617
0.155012
0.569064
0.205759
0.505517
0.178942
0.431375
0.568525
0.655161
0.591414
0.251112
0.335753
0.383564
0.308917
0.367786
0.353027
0.341634
0.363333
0.568453
0.382213
0.537334
0.337186
0.523297
0.281398
0.460477
0.358391
0.404353
0.354818
0.411718
0.221777
0.367914
0.221771
0.465805
0.286706
0.267589
0.311517
0.255999
0.523480
0.339802
3.656209
2.250548
0.643747
0.175885
0.401511
0.196495
0.455056
0.270595
0.438007
0.166223
0.494836
0.262765
0.400666
0.082993
0.432622
0.181846
0.454517
0.320451
0.502773
0.368798
0.495698
0.344454
0.232183
0.466532
0.084395
0.478216
0.156769
0.568908
0.223170
0.511305
0.182307
0.436021
0.581081
0.654654
0.589654
0.251061
0.318750
0.392686
0.326180
0.347150
0.331457
0.356482
0.392985
0.603145
0.409625
0.562866
0.387708
0.559785
0.371432
0.528365
0.448471
0.470172
0.394500
0.462577
0.231379
0.386489
0.222554
0.472931
0.282988
0.250255
0.314770
0.262778
0.524041
0.335751
3.652394
2.246880
0.635095
0.185982
0.386767
0.165353
0.455309
0.301576
0.430164
0.189453
0.476938
0.249657
0.401000
0.071873
0.417849
0.178868
0.445455
0.307695
0.495863
0.358804
0.488806
0.341351
0.225556
0.465668
0.085196
0.483408
0.159968
0.564579
0.240963
0.505007
0.189587
0.442147
0.594715
0.655335
0.589427
0.254527
0.304247
0.403890
0.345268
0.329072
0.312763
0.373741
0.422704
0.613931
0.446196
0.594661
0.452823
0.605051
0.448676
0.583592
0.516963
0.521905
0.384199
0.503422
0.235431
0.400515
0.222139
0.480913
0.282623
0.236465
0.321306
0.273372
0.526783
0.335274
3.648947
2.243833
0.628377
0.201928
0.375211
0.137031
0.458168
0.332689
0.425036
0.215167
0.461007
0.240428
0.403764
0.072967
0.404693
0.180389
0.437477
0.296756
0.489321
0.349591
0.481960
0.338616
0.219018
0.464956
0.087926
0.489038
0.164350
0.560699
0.258981
0.495098
0.200185
0.449681
0.609155
0.657160
0.590514
0.261079
0.292291
0.416939
0.365896
0.313660
0.297109
0.392931
0.435018
0.628919
0.487723
0.626103
0.516741
0.642915
0.495404
0.609234
0.549942
0.501918
0.344094
0.496024
0.230764
0.409648
0.220185
0.489736
0.285327
0.226429
0.330807
0.287231
0.531572
0.338184
3.645924
2.241386
0.623560
0.222048
0.367078
0.113474
0.463442
0.315586
0.422672
0.242267
0.447282
0.235494
0.408831
0.085433
0.393330
0.186029
0.430608
0.287802
0.483248
0.341241
0.475242
0.336250
0.212614
0.464384
0.092285
0.494976
0.169711
0.557291
0.276867
0.486293
0.213493
0.458420
0.624072
0.656076
0.592687
0.270116
0.283292
0.431550