# vtk DataFile Version 2.0
Comment goes here
ASCII
DATASET UNSTRUCTURED_GRID
POINTS 6500 float
47.627109 1.226142 9.837090 
46.217016 1.227620 9.847734 
44.573654 1.228870 9.859985 
42.979127 1.228136 9.870707 
41.544955 1.223953 9.875108 
40.018589 1.217872 9.874457 
38.490628 1.212233 9.871098 
36.969183 1.207526 9.865750 
35.447899 1.202904 9.857282 
33.926382 1.197009 9.844105 
32.410988 1.188304 9.823130 
30.885320 1.176505 9.789121 
29.361336 1.165500 9.726897 
27.853326 1.153141 9.576301 
26.380223 1.121586 9.239018 
24.967779 1.063441 8.701879 
23.619921 0.986727 7.990973 
22.343115 0.898488 7.150208 
21.139108 0.800757 6.253702 
19.934232 0.685165 5.307760 
18.741299 0.562508 4.369007 
17.509902 0.448008 3.451526 
16.215378 0.347784 2.656945 
14.829576 0.273526 2.099818 
13.324061 0.254474 1.939881 
11.885803 0.295438 2.288203 
10.529500 0.379498 2.979896 
9.251791 0.484685 3.843698 
8.056880 0.592649 4.767649 
6.856906 0.706510 5.714716 
5.653037 0.817575 6.629045 
4.402372 0.917179 7.518620 
3.117742 1.004550 8.314694 
1.759826 1.081135 8.968350 
0.310934 1.139226 9.431883 
-1.181568 1.169072 9.690954 
-2.696436 1.183759 9.795855 
-4.218180 1.192413 9.828133 
-5.737021 1.195311 9.834676 
-7.260255 1.198918 9.826127 
-8.783527 1.204943 9.794640 
-10.291111 1.200839 9.708795 
-11.800549 1.192541 9.507105 
-13.291140 1.188917 9.180071 
-14.762615 1.184863 8.805680 
-16.259621 1.173053 8.517087 
-17.774161 1.161020 8.366214 
-19.282662 1.153118 8.311723 
-20.807348 1.141684 8.284273 
-22.330331 1.123401 8.261085 
-23.849812 1.111451 8.252810 
-25.372247 1.113144 8.285869 
-26.881417 1.130863 8.430921 
-28.373224 1.147772 8.720234 
-29.851515 1.153067 9.099229 
-31.326031 1.157138 9.468279 
-32.821168 1.153034 9.694444 
-34.342199 1.159846 9.783262 
-35.872674 1.175807 9.811084 
-37.385249 1.186993 9.825599 
-38.905079 1.195575 9.834981 
-40.428071 1.201742 9.840575 
-41.903581 1.205601 9.843468 
-43.568416 1.208302 9.844924 
47.627109 1.835862 9.746325 
46.217016 1.837350 9.756968 
44.573654 1.838607 9.769217 
42.979127 1.837851 9.779943 
41.544955 1.833567 9.784359 
40.018589 1.827310 9.783734 
38.490628 1.821458 9.780406 
36.969183 1.816469 9.775101 
35.447899 1.811406 9.766698 
33.926382 1.804804 9.753626 
32.410988 1.794971 9.732819 
30.885320 1.781309 9.699088 
29.361336 1.766474 9.637433 
27.853326 1.744081 9.488331 
26.380223 1.690246 9.154365 
24.967779 1.597910 8.622316 
23.619921 1.477206 7.917958 
22.343115 1.337463 7.084860 
21.139108 1.184480 6.196580 
19.934232 1.010468 5.259334 
18.741299 0.829647 4.329239 
17.509902 0.657708 3.420309 
16.215378 0.507664 2.633144 
14.829576 0.399067 2.081130 
13.324061 0.370940 1.922543 
11.885803 0.432933 2.267735 
10.529500 0.559369 2.953120 
9.251791 0.718337 3.808916 
8.056880 0.883821 4.724304 
6.856906 1.056682 5.662588 
5.653037 1.224769 6.568428 
4.402372 1.379782 7.449755 
3.117742 1.516470 8.238488 
1.759826 1.633525 8.886119 
0.310934 1.720852 9.345300 
-1.181568 1.767490 9.601871 
-2.696436 1.789176 9.705730 
-4.218180 1.800034 9.737681 
-5.737021 1.803409 9.744152 
-7.260255 1.806466 9.735685 
-8.783527 1.810284 9.704526 
-10.291111 1.799818 9.619628 
-11.800549 1.776413 9.420188 
-13.291140 1.748660 9.096745 
-14.762615 1.717010 8.726462 
-16.259621 1.681948 8.441331 
-17.774161 1.654000 8.292827 
-19.282662 1.636663 8.239740 
-20.807348 1.619315 8.213171 
-22.330331 1.596888 8.190600 
-23.849812 1.582515 8.182686 
-25.372247 1.584999 8.215626 
-26.881417 1.611838 8.359321 
-28.373224 1.651079 8.645310 
-29.851515 1.689582 9.019362 
-31.326031 1.728508 9.383223 
-32.821168 1.747909 9.605889 
-34.342199 1.764514 9.693248 
-35.872674 1.783095 9.720681 
-37.385249 1.795311 9.735042 
-38.905079 1.804428 9.744345 
-40.428071 1.810840 9.749903 
-41.903581 1.814756 9.752787 
-43.568416 1.817415 9.754249 
47.627109 2.438682 9.617463 
46.217016 2.440180 9.628103 
44.573654 2.441443 9.640351 
42.979127 2.440666 9.651081 
41.544955 2.436281 9.655519 
40.018589 2.429851 9.654931 
38.490628 2.423788 9.651649 
36.969183 2.418519 9.646403 
35.447899 2.413020 9.638093 
33.926382 2.405720 9.625171 
32.410988 2.394772 9.604602 
30.885320 2.379268 9.571265 
29.361336 2.360646 9.510419 
27.853326 2.328333 9.363438 
26.380223 2.252470 9.034181 
24.967779 2.126330 8.509358 
23.619921 1.962134 7.814297 
22.343115 1.771471 6.992084 
21.139108 1.563860 6.115481 
19.934232 1.332089 5.190583 
18.741299 1.093762 4.272780 
17.509902 0.865035 3.375990 
16.215378 0.665735 2.599354 
14.829576 0.523187 2.054597 
13.324061 0.486088 1.897929 
11.885803 0.568872 2.238675 
10.529500 0.737204 2.915105 
9.251791 0.949343 3.759535 
8.056880 1.171698 4.662765 
6.856906 1.402891 5.588580 
5.653037 1.627354 6.482369 
4.402372 1.837149 7.351986 
3.117742 2.022595 8.130295 
1.759826 2.179664 8.769374 
0.310934 2.295896 9.222375 
-1.181568 2.359135 9.475397 
-2.696436 2.387740 9.577777 
-4.218180 2.400778 9.609262 
-5.737021 2.404625 9.615632 
-7.260255 2.407137 9.607282 
-8.783527 2.408775 9.576590 
-10.291111 2.392018 9.493036 
-11.800549 2.353677 9.296788 
-13.291140 2.302068 8.978445 
-14.762615 2.243134 8.613995 
-16.259621 2.185082 8.333778 
-17.774161 2.141402 8.188638 
-19.282662 2.114735 8.137545 
-20.807348 2.091540 8.112225 
-22.330331 2.065017 8.090530 
-23.849812 2.048248 8.083128 
-25.372247 2.051514 8.115901 
-26.881417 2.087370 8.257668 
-28.373224 2.148690 8.538938 
-29.851515 2.220024 8.905971 
-31.326031 2.293412 9.262465 
-32.821168 2.336051 9.480164 
-34.342199 2.362338 9.565454 
-35.872674 2.383508 9.592333 
-37.385249 2.396744 9.606477 
-38.905079 2.406391 9.615666 
-40.428071 2.413045 9.621172 
-41.903581 2.417017 9.624044 
-43.568416 2.419635 9.625515 
47.627109 3.032218 9.450996 
46.217016 3.033727 9.461633 
44.573654 3.034996 9.473880 
42.979127 3.034198 9.484616 
41.544955 3.029714 9.489081 
40.018589 3.023113 9.488541 
38.490628 3.016843 9.485317 
36.969183 3.011299 9.480148 
35.447899 3.005370 9.471959 
33.926382 2.997382 9.459230 
32.410988 2.985336 9.438969 
30.885320 2.968019 9.406140 
29.361336 2.945669 9.346340 
27.853326 2.903589 9.202099 
26.380223 2.806037 8.878924 
24.967779 2.646613 8.363436 
23.619921 2.439594 7.680386 
22.343115 2.198795 6.872234 
21.139108 1.937399 6.010716 
19.934232 1.648758 5.101768 
18.741299 1.353810 4.199846 
17.509902 1.069169 3.318737 
16.215378 0.821372 2.555703 
14.829576 0.645396 2.020322 
13.324061 0.599463 1.866131 
11.885803 0.702717 2.201136 
10.529500 0.912300 2.865996 
9.251791 1.176793 3.695743 
8.056880 1.455142 4.583269 
6.856906 1.743768 5.492975 
5.653037 2.023740 6.371196 
4.402372 2.287473 7.225685 
3.117742 2.520927 7.990530 
1.759826 2.717392 8.618559 
0.310934 2.862084 9.063579 
-1.181568 2.941669 9.312016 
-2.696436 2.977088 9.412485 
-4.218180 2.992271 9.443368 
-5.737021 2.996583 9.449608 
-7.260255 2.998559 9.441409 
-8.783527 2.998049 9.411318 
-10.291111 2.975099 9.329502 
-11.800549 2.922052 9.137378 
-13.291140 2.846954 8.825623 
-14.762615 2.761156 8.468707 
-16.259621 2.680470 8.194839 
-17.774161 2.621298 8.054043 
-19.282662 2.585446 8.005526 
-20.807348 2.556493 7.981822 
-22.330331 2.525937 7.961257 
-23.849812 2.506810 7.954517 
-25.372247 2.510845 7.987075 
-26.881417 2.555579 8.126352 
-28.373224 2.638637 8.401524 
-29.851515 2.742298 8.759491 
-31.326031 2.849618 9.106469 
-32.821168 2.915136 9.317750 
-34.342199 2.950956 9.400366 
-35.872674 2.974677 9.426530 
-37.385249 2.988916 9.440392 
-38.905079 2.999084 9.449436 
-40.428071 3.005977 9.454874 
-41.903581 3.010004 9.457731 
-43.568416 3.012580 9.459214 
47.627109 3.614133 9.247595 
46.217016 3.615651 9.258229 
44.573654 3.616927 9.270474 
42.979127 3.616108 9.281217 
41.544955 3.611527 9.285716 
40.018589 3.604759 9.285235 
38.490628 3.598285 9.282082 
36.969183 3.592472 9.277007 
35.447899 3.586122 9.268965 
33.926382 3.577459 9.256471 
32.410988 3.564337 9.236587 
30.885320 3.545242 9.204379 
29.361336 3.519237 9.145857 
27.853326 3.467581 9.004963 
26.380223 3.348764 8.689221 
24.967779 3.156709 8.185139 
23.619921 2.907706 7.516763 
22.343115 2.617752 6.725793 
21.139108 2.303623 5.882707 
19.934232 1.959226 4.993248 
18.741299 1.608767 4.110729 
17.509902 1.269306 3.248782 
16.215378 0.973961 2.502368 
14.829576 0.765212 1.978442 
13.324061 0.710619 1.827278 
11.885803 0.833942 2.155268 
10.529500 1.083968 2.805992 
9.251791 1.399789 3.617798 
8.056880 1.733036 4.486135 
6.856906 2.077971 5.376159 
5.653037 2.412364 6.235358 
4.402372 2.728979 7.071362 
3.117742 3.009501 7.819755 
1.759826 3.244592 8.434283 
0.310934 3.417186 8.869550 
-1.181568 3.512797 9.112386 
-2.696436 3.554895 9.210520 
-4.218180 3.572182 9.240668 
-5.737021 3.576950 9.246748 
-7.260255 3.578400 9.238733 
-8.783527 3.575784 9.209378 
-10.291111 3.546763 9.129684 
-11.800549 3.479297 8.942600 
-13.291140 3.381170 8.638895 
-14.762615 3.269035 8.291185 
-16.259621 3.166157 8.025074 
-17.774161 3.091797 7.889586 
-19.282662 3.046939 7.844217 
-20.807348 3.012342 7.822486 
-22.330331 2.977832 7.803303 
-23.849812 2.956392 7.797371 
-25.372247 2.961182 7.829665 
-26.881417 3.014621 7.965900 
-28.373224 3.118991 8.233623 
-29.851515 3.254345 8.580511 
-31.326031 3.394932 8.915861 
-32.821168 3.482882 9.119302 
-34.342199 3.528049 9.198651 
-35.872674 3.554269 9.223941 
-37.385249 3.569492 9.237460 
-38.905079 3.580171 9.246324 
-40.428071 3.587299 9.251681 
-41.903581 3.591379 9.254519 
-43.568416 3.593916 9.256015 
47.627109 4.182126 9.008053 
46.217016 4.183654 9.018683 
44.573654 4.184936 9.030924 
42.979127 4.184096 9.041676 
41.544955 4.179421 9.046215 
40.018589 4.172489 9.045803 
38.490628 4.165818 9.042733 
36.969183 4.159741 9.037770 
35.447899 4.152980 9.029901 
33.926382 4.143659 9.017685 
32.410988 4.129486 8.998244 
30.885320 4.108656 8.966768 
29.361336 4.079083 8.909750 
27.853326 4.018080 8.772798 
26.380223 3.878508 8.465810 
24.967779 3.654601 7.975160 
23.619921 3.364619 7.324067 
22.343115 3.026685 6.553332 
[...]
POINT_DATA 6500
SCALARS sample_scalars float 1
LOOKUP_TABLE my_table
3.642139
2.238816
0.642024
0.209469
0.418201
0.146372
0.400071
0.202034
0.312416
0.275633
0.216732
0.351472
0.147672
0.423755
0.186662
0.585166
0.307832
0.515790
0.399391
0.452539
0.545326
0.398798
0.449024
0.356707
0.251522
0.238614
0.209928
0.288513
0.400627
0.127058
0.519046
0.124566
0.522695
0.116465
0.432992
0.119743
0.381622
0.192768
0.303815
0.277931
0.233339
0.372735
0.274007
0.514522
0.403514
0.620613
0.595072
0.525793
0.471681
0.485204
0.368420
0.535370
0.392185
0.542638
0.456930
0.351119
0.294105
0.383870
0.129590
0.455738
0.076495
0.511216
0.363786
0.434597
3.646857
2.246588
0.668960
0.259864
0.444920
0.208471
0.425518
0.246745
0.341503
0.305899
0.249879
0.369680
0.183756
0.448648
0.232847
0.594348
0.345605
0.526635
0.428398
0.464249
0.561780
0.408790
0.458144
0.361548
0.255306
0.244889
0.208911
0.298789
0.394261
0.144950
0.511025
0.146316
0.539889
0.145042
0.452111
0.162295
0.400693
0.231586
0.330921
0.307645
0.267392
0.408874
0.272230
0.524042
0.394359
0.581681
0.599321
0.493726
0.439332
0.470928
0.354876
0.519896
0.385484
0.535023
0.453454
0.356474
0.344306
0.399215
0.173947
0.472726
0.152710
0.529124
0.389431
0.456763
3.648573
2.249401
0.678438
0.270514
0.451108
0.220854
0.431426
0.256272
0.347948
0.312267
0.256135
0.372933
0.189255
0.456656
0.244471
0.594943
0.358552
0.528069
0.440046
0.467344
0.569693
0.412791
0.462558
0.363502
0.256382
0.247055
0.205493
0.301983
0.387700
0.144973
0.502665
0.144379
0.545620
0.143700
0.456973
0.166978
0.404456
0.239239
0.336750
0.313604
0.272525
0.413593
0.302170
0.503209
0.378454
0.536369
0.572293
0.471195
0.417051
0.467567
0.357617
0.513032
0.388924
0.528350
0.435035
0.359697
0.368335
0.401957
0.182240
0.476590
0.165726
0.533301
0.395273
0.461829
3.647890
2.248286
0.674708
0.255333
0.442401
0.203086
0.422850
0.241850
0.337611
0.300864
0.242392
0.364008
0.171562
0.451251
0.233120
0.589389
0.354344
0.523090
0.439495
0.464586
0.571100
0.412534
0.463415
0.363420
0.255723
0.246461
0.201445
0.300330
0.382260
0.133256
0.495334
0.125106
0.542270
0.119203
0.450629
0.144610
0.395996
0.224345
0.326289
0.301811
0.257060
0.397739
0.343243
0.468708
0.368258
0.497773
0.496927
0.466853
0.414018
0.480490
0.382145
0.520037
0.406185
0.528569
0.412454
0.366401
0.354035
0.393961
0.164235
0.469653
0.143618
0.526643
0.386044
0.453817
3.646824
2.246549
0.668892
0.236905
0.432397
0.181325
0.413240
0.225182
0.326212
0.288469
0.227684
0.355141
0.152905
0.444577
0.219766
0.584294
0.347544
0.517958
0.436441
0.461142
0.570786
0.411423
0.463244
0.362913
0.254885
0.245456
0.198663
0.298129
0.378883
0.121741
0.490474
0.105489
0.538019
0.093460
0.443812
0.119724
0.387269
0.207700
0.314861
0.288844
0.239992
0.378563
0.310775
0.431092
0.372818
0.477020
0.435689
0.481877
0.431084
0.507184
0.421487
0.537638
0.431206
0.537142
0.392442
0.379414
0.321944
0.386088
0.143913
0.462254
0.115125
0.519265
0.375626
0.444811
3.646109
2.245399
0.665069
0.223873
0.425820
0.166216
0.407231
0.214514
0.319260
0.281021
0.219010
0.350339
0.142404
0.440931
0.212284
0.581635
0.343552
0.514690
0.434600
0.458816
0.570721
0.410759
0.463097
0.362599
0.254417
0.244901
0.197465
0.296910
0.377258
0.115037
0.487753
0.093327
0.535755
0.078204
0.440132
0.103818
0.382238
0.197220
0.307812
0.280588
0.228368
0.362581
0.268130
0.397089
0.395247
0.478835
0.400189
0.435366
0.433852
0.528494
0.447445
0.558254
0.455261
0.550533
0.379672
0.398591
0.289299
0.381856
0.131402
0.457817
0.093345
0.514563
0.368835
0.438938
3.645743
2.244829
0.663247
0.217270
0.422853
0.159701
0.404999
0.210782
0.317064
0.278938
0.217124
0.349793
0.141932
0.440342
0.211244
0.581465
0.342382
0.513341
0.433923
0.457628
0.570849
0.410521
0.462939
0.362464
0.254312
0.244781
0.197913
0.296665
0.377485
0.114053
0.487315
0.091799
0.535465
0.079892
0.439657
0.101342
0.381068
0.193951
0.305473
0.277505
0.223135
0.350756
0.227259
0.372804
0.388736
0.431019
0.393033
0.386392
0.382559
0.493675
0.410611
0.579596
0.456980
0.563535
0.375424
0.422214
0.258266
0.381438
0.129047
0.456447
0.083810
0.512632
0.365905
0.436354
3.645727
2.244840
0.663444
0.217715
0.423583
0.162831
0.406607
0.214346
0.319717
0.282330
0.222187
0.353509
0.151547
0.442800
0.216698
0.583778
0.344037
0.513933
0.434404
0.457591
0.571160
0.410702
0.462765
0.362503
0.254569
0.245091
0.199996
0.297385
0.379567
0.118925
0.489183
0.101380
0.537135
0.097605
0.442381
0.113156
0.383790
0.198248
0.307952
0.279773
0.224771
0.343767
0.191025
0.362139
0.323737
0.364953
0.405829
0.358421
0.351472
0.476185
0.394169
0.573354
0.449825
0.576061
0.378448
0.447575
0.231071
0.384826
0.137345
0.458171
0.090495
0.513510
0.366939
0.437125
3.646076
2.245458
0.665738
0.225266
0.428036
0.175185
0.412045
0.224912
0.327130
0.291026
0.233745
0.361337
0.169488
0.448299
0.228237
0.588530
0.348576
0.516468
0.436134
0.458735
0.571713
0.411335
0.462607
0.362732
0.255195
0.245845
0.203625
0.299090
0.383403
0.128957
0.493238
0.119324
0.540781
0.124534
0.448259
0.135504
0.390321
0.209665
0.315154
0.287289
0.233154
0.341953
0.162699
0.365185
0.276319
0.320624
0.429945
0.348017
0.337824
0.472336
0.393961
0.574903
0.459756
0.567337
0.388255
0.457919
0.209855
0.391862
0.154572
0.462962
0.110572
0.517203
0.371938
0.441267
3.646808
2.246712
0.670216
0.239366
0.436158
0.195133
0.421209
0.241629
0.339029
0.304600
0.250910
0.373005
0.193404
0.456797
0.245083
0.595640
0.356031
0.520928
0.439228
0.461089
0.572593
0.412462
0.462515
0.363172
0.256199
0.247065
0.208668
0.301795
0.388837
0.143024
0.499294
0.142392
0.546414
0.155821
0.457192
0.164075
0.400477
0.227160
0.326797
0.299691
0.247621
0.345282
0.145464
0.378180
0.246451
0.295510
0.394003
0.352450
0.339710
0.480016
0.407351
0.585870
0.482985
0.568081
0.406415
0.431791
0.196032
0.402278
0.178149
0.470742
0.138415
0.523681
0.380793
0.448727
3.647910
2.248577
0.676742
0.258847
0.447685
0.220487
0.433794
0.263218
0.354884
0.322354
0.272542
0.388116
0.221289
0.468021
0.266066
0.604997
0.366057
0.527238
0.443538
0.464599
0.573719
0.414033
0.462444
0.363798
0.257558
0.248708
0.215031
0.305422
0.395856
0.160019
0.507362
0.168467
0.553890
0.189273
0.468934
0.196096
0.413944
0.249374
0.342364
0.316342
0.267138
0.353371
0.141435
0.397264
0.231955
0.286392
0.364530
0.369635
0.355907
0.498557
0.433211
0.604425
0.516207
0.575648
0.435053
0.411347
0.189464
0.415748
0.205820
0.481327
0.170141
0.532806
0.393190
0.459298
3.649368
2.251027
0.685174
0.282492
0.462289
0.249468
0.449434
0.288465
0.374101
0.343549
0.297571
0.406223
0.251726
0.481674
0.290128
0.616457
0.378296
0.535299
0.448923
0.469202
0.575024
0.416001
0.462355
0.363356
0.259246
0.250735
0.222591
0.309888
0.404406
0.179048
0.517397
0.196297
0.563053
0.223843
0.483198
0.230036
0.430348
0.275068
0.361273
0.336538
0.290622
0.365682
0.150173
0.419564
0.229424
0.289606
0.345579
0.397713
0.385177
0.527952
0.471098
0.630134
0.557350
0.588008
0.475859
0.394736
0.189780
0.431933
0.236048
0.494487
0.203825
0.544399
0.408745
0.472717
3.651176
2.254054
0.695419
0.309277
0.479640
0.280859
0.467764
0.316406
0.396118
0.367508
0.325117
0.426869
0.283781
0.497492
0.316462
0.629847
0.392480
0.544998
0.455323
0.474848
0.576497
0.418349
0.459821
0.360004
0.257381
0.246615
0.222731
0.315131
0.414349
0.199446
0.529241
0.225125
0.573777
0.258947
0.499704
0.265036
0.449304
0.303270
0.382961
0.359613
0.317116
0.381604
0.168539
0.426974
0.234879
0.301831
0.335746
0.434460
0.425025
0.566826
0.518807
0.662758
0.604605
0.604807
0.528350
0.380740
0.196773
0.450496
0.267865
0.509976
0.238544
0.558267
0.427064
0.488706
3.653350
2.257678
0.707466
0.338462
0.499447
0.313924
0.488465
0.346359
0.420463
0.393682
0.354528
0.449637
0.316859
0.515291
0.344530
0.644987
0.408479
0.556223
0.462793
0.481514
0.578216
0.417139
0.454949
0.356842
0.254453
0.242088
0.218330
0.308779
0.418391
0.220746
0.542622
0.254471
0.585988
0.294227
0.518212
0.300607
0.470453
0.333292
0.406948
0.385010
0.345872
0.400522
0.192804
0.401673
0.245203
0.321174
0.333489
0.455242
0.455545
0.584503
0.545478
0.700713
0.655176
0.626898
0.536946
0.368991
0.210442
0.471131
0.300693
0.527559
0.273869
0.574233
0.447795
0.507011
3.655897
2.261910
0.721262
0.369473
0.521422
0.348164
0.511230
0.377816
0.446728
0.421624
0.385327
0.474175
0.350556
0.527830
0.341782
0.636712
0.395941
0.558904
0.467258
0.485069
0.574278
0.411398
0.450116
0.353895
0.251901
0.237996
0.215335
0.300952
0.413587
0.201115
0.543188
0.255978
0.583269
0.295451
0.528042
0.336490
0.493479
0.364648
0.432826
0.412275
0.376333
0.421920
0.220420
0.381292
0.259755
0.346732
0.337944
0.427840
0.421326
0.558097
0.518752
0.740775
0.704965
0.653966
0.539424
0.360324
0.230575
0.493577
0.334189
0.547017
0.309570
0.592118
0.470609
0.527385
3.658796
2.266711
0.730498
0.373349
0.515614
0.330547
0.495999
0.354437
0.426069
0.398532
0.358447
0.451639
0.316857
0.505318
0.308986
0.622896
0.372364
0.546750
0.453154
0.476264
0.567417
0.406127
0.445363
0.351183
0.249738
0.234374
0.213741
0.294019
0.410269
0.181671
0.535898
0.229217
0.567924
0.263275
0.506879
0.301292
0.479221
0.353831
0.426593
0.409018
0.377061
0.445478
0.250501
0.364016
0.279587
0.377981
0.348745
0.404617
0.392579
0.536366
0.496084
0.744838
0.727825
0.683940
0.543095
0.356460
0.256045
0.482637
0.325886
0.549155
0.319592
0.598985
0.479526
0.534914
3.657279
2.261913
0.712937
0.339766
0.492365
0.293849
0.472778
0.321648
0.399597
0.370644
0.328076
0.428770
0.284338
0.484615
0.277421
0.611126
0.350163
0.536219
0.439896
0.468481
0.560765
0.401287
0.440639
0.348680
0.247952
0.231200
0.213580
0.287976
0.408528
0.164060
0.530510
0.204122
0.554117
0.232732
0.487727
0.266804
0.456900
0.321839
0.400112
0.381019
0.346124
0.463905
0.282881
0.348577
0.306266
0.414573
0.365833
0.385892
0.370240
0.519460
0.477461
0.720758
0.707611
0.713203
0.547731
0.358646
0.285382
0.461348
0.292147
0.528959
0.282419
0.579668
0.454942
0.512879
3.654159
2.256888
0.696929
0.307680
0.471360
0.258083
0.451853
0.290537
0.375393
0.344962
0.299692
0.408255
0.253401
0.465894
0.247437
0.601493
0.329505
0.527384
0.427497
0.461749
0.554291
0.396867
0.435924
0.346375
0.246533
0.228469
0.214836
0.282842
0.408393
0.148875
0.527112
0.181339
0.541913
0.204499
0.470783
0.233666
0.436837
0.291433
0.375718
0.355047
0.317096
0.438712
0.317633
0.334525
0.341259
0.394326
0.389447
0.372044
0.354668
0.506910
0.462196
0.695021
0.682648
0.736290
0.551966
0.367113
0.317112
0.442218
0.259427
0.510744
0.245476
0.562285
0.432376
0.492885
3.651405
2.252460
0.682603
0.277603
0.452896
0.223660
0.433533
0.261662
0.353889
0.321970
0.273855
0.390418
0.224609
0.449385
0.219612
0.594052
0.310695
0.520308
0.416061
0.456112
0.548025
0.392886
0.431234
0.344272
0.245483
0.226189
0.217428
0.278654
0.409802
0.136819
0.525670
0.161721
0.531406
0.179503
0.456256
0.202436
0.419320
0.263118
0.353815
0.331554
0.290515
0.415426
0.348496
0.322362
0.366382
0.356256
0.419310
0.363921
0.346560
0.499062
0.450840
0.666867
0.651162
0.705264
0.553810
0.380933
0.349870
0.425536
0.228111
0.494710
0.208859
0.547012
0.412150
0.475182
3.649032
2.248658
0.670148
0.250249
0.437284
0.191254
0.418129
0.235777
0.335547
0.302205
0.251229
0.375541
0.198692
0.435349
0.194815
0.583410
0.294190
0.515025
0.405793
0.451621
0.542070
0.389396
0.426628
0.342394
0.244805
0.224387
0.221209
0.275462
0.412585
0.128582
0.526011
0.146244
0.522710
0.158895
0.444340
0.173891
0.404607
0.237549
0.334835
0.311035
0.267018
0.394388
0.313863
0.314080
0.323532
0.317127
0.399824
0.362613
0.347164
0.497261
0.445363
0.636745
0.612325
0.672091
0.551814
0.398651
0.355898
0.411530
0.198720
0.481037
0.172693
0.534010
0.394600
0.460016
3.647038
2.245478
0.659637
0.226452
0.424748
0.161832
0.405871
0.213772
0.320774
0.286181
0.232555
0.363858
0.176647
0.423943
0.174094
0.573333
0.280309
0.511532
0.396771
0.448284
0.536446
0.386401
0.422117
0.340740
0.244490
0.223059
0.226051
0.273267
0.416636
0.124719
0.528039
0.136044
0.515856
0.144200
0.435149
0.149249
0.392901
0.215512
0.319172
0.293980
0.247325
0.376115
0.280538
0.312187
0.283108
0.281644
0.351538
0.369267
0.358027
0.478280
0.395171
0.606604
0.566462
0.635941
0.545183
0.419157
0.320712
0.400370
0.172007
0.469851
0.137077
0.523381
0.380007
0.447568
3.645399
2.242882
0.651022
0.207181
0.415432
0.136922
0.396914
0.196686
0.309920
0.274387
0.218664
0.355588
0.159887
0.415213
0.158650
0.564805
0.269154
0.509804
0.388900
0.446060
0.531062
0.383849
0.417650
0.339278
0.244509
0.222163
0.231872
0.272012
0.421956
0.125505
0.531802
0.132236
0.510797
0.137180
0.428736
0.130515
0.384382
0.197993
0.307204
0.280881
0.232264
0.361264
0.250564
0.317975
0.251972
0.255042
0.311641
0.384879
0.360040
0.414564
0.305216
0.580409
0.515750
0.596960
0.533745
0.441664
0.287301
0.392216
0.149201
0.461257
0.102209
0.515193
0.368608
0.437970
3.644108
2.240856
0.644316
0.193609
0.409465
0.119061
0.391387
0.185675
0.303283
0.267246
0.210341
0.350880
0.149982
0.409227
0.149819
0.557801
0.260907
0.509805
0.382177
0.444926
0.525894
0.381719
0.413212
0.337996
0.244841
0.221673
0.238554
0.271658
0.428466
0.130702
0.531293
0.135171
0.507509
0.138762
0.425135
0.120210
0.379182
0.186102
0.299268
0.272197
0.222646
0.350402
0.226359
0.330995
0.237041
0.241777
0.286662
0.356299
0.303857
0.361966
0.217908
0.542896
0.466169
0.556762
0.518062
0.452751
0.256032
0.387172
0.132135
0.455342
0.068841
0.509511
0.360627
0.431347
3.643165
2.239403
0.639576
0.186820
0.406912
0.111362
0.389339
0.181636
0.301012
0.264982
0.208047
0.349750
0.148003
0.406042
0.148528
0.552380
0.255797
0.511469
0.376681
0.444861
0.520982
0.380016
0.408828
0.336892
0.245470
0.221578
0.245942
0.272175
0.436005
0.139610
0.529520
0.144137
0.505983
0.148276
0.424324
0.120110
0.377330
0.180750
0.295574
0.268227
0.219012
0.343871
0.210253
0.349280
0.241401
0.244144
0.281885
0.315413
0.266846
0.332582
0.156586
0.470995
0.393237
0.519671
0.465662
0.423110
0.227533
0.385238
0.122929
0.452143
0.040110
0.506363
0.356216
0.427769
3.642583
2.238540
0.636899
0.187397
0.407755
0.115551
0.390725
0.184799
0.303058
0.267536
0.211721
0.352061
0.153841
0.405685
0.154738
0.548684
0.254063
0.514699
0.372579
0.445852
0.516429
0.378775
0.404555
0.333120
0.246383
0.221876
0.253855
0.273541
0.444341
0.151315
0.528878
0.157703
0.506214
0.163825
0.426221
0.129704
0.378736
0.182262
0.296134
0.269016
0.221419
0.341692
0.203568
0.370848
0.262063
0.261856
0.298697
0.296461
0.261689
0.337012
0.166758
0.421476
0.276267
0.491404
0.391723
0.398459
0.202741
0.386291
0.122966
0.451630
0.031401
0.505731
0.355417
0.427238
3.642345
2.238241
0.636211
0.194992
0.411836
0.130053
0.395367
0.194531
0.309160
0.274584
0.220839
0.357616
0.166408
0.408024
0.167268
0.546621
0.255554
0.519394
0.369808
0.447836
0.512201
0.377960
0.399071
0.329087
0.244056
0.218684
0.262197
0.275682
0.453395
0.165070
0.529299
0.174611
0.508102
0.183646
0.430665
0.146797
0.383243
0.190229
0.300770
0.274353
0.229471
0.343639
0.206121
0.394474
0.293653
0.292183
0.333768
0.304924
0.291334
0.374109
0.239387
0.406923
0.169080
0.477014
0.315958
0.380178
0.182933
0.390184
0.131929
0.453720
0.052763
0.507538
0.358127
0.429657
3.642430
2.238470
0.637380
0.208564
0.418920
0.151559
0.403012
0.209660
0.318924
0.285625
0.234587
0.366169
0.184154
0.412854
0.184500
0.546020
0.259924
0.525445
0.368229
0.450731
0.508220
0.377517
0.390997
0.325332
0.241574
0.213885
0.267160
0.278503
0.463137
0.180298
0.530686
0.193882
0.511515
0.206385
0.437462
0.168937
0.390644
0.203690
0.309158
0.283831
0.242441
0.349367
0.216551
0.419380
0.331496
0.331550
0.381546
0.338409
0.345730
0.432232
0.330604
0.429684
0.115041
0.479156
0.243154
0.369446
0.169489
0.396738
0.147985
0.458296
0.083195
0.511672
0.364144
0.434870
3.642826
2.239203
0.640313
0.226804
0.428726
0.177226
0.413358
0.228880
0.331863
0.300045
0.252013
0.377393
0.205521
0.419964
0.204976
0.546777
0.266842
0.532730
0.367768
0.454463
0.504460
0.377411
0.383025
0.321835
0.239464
0.209548
0.268186
0.281925
0.473472
0.196512
0.532968
0.214706
0.516334
0.230973
0.446387
0.194160
0.400663
0.221439
0.320861
0.296896
0.259404
0.358435
0.232898
0.420932
0.372429
0.376479
0.436581
0.388533
0.411743
0.497736
0.419446
0.478763
0.166867
0.496652
0.181717
0.366660
0.163317
0.405698
0.168891
0.465198
0.115390
0.517995
0.373189
0.442675
3.643532
2.240439
0.644974
0.248481
0.440950
0.205222
0.426074
0.251020
0.347453
0.317188
0.272173
0.390888
0.229205
0.429157
0.227586
0.548903
0.276054
0.541102
0.368460
0.458971
0.500981
0.372022
0.375164
0.318593
0.237717
0.205679
0.270070
0.281402
0.484220
0.213287
0.536112
0.236397
0.522462
0.256545
0.457193
0.221082
0.412959
0.242299
0.335367
0.312921
0.279404
0.370326
0.253162
0.414969
0.414483
0.422188
0.491971
0.443025
0.474919
0.554845
0.490698
0.537101
0.256293
0.524008
0.147153
0.371175
0.164245
0.416727
0.192795
0.474221
0.147881
0.526338
0.384926
0.452833
3.644551
2.242182
0.651333
0.272589
0.455276
0.234476
0.440822
0.275161
0.365187
0.336452
0.294280
0.406256
0.254280
0.440229
0.251551
0.552423
0.287307
0.550415
0.370354
0.464193
0.497861
0.365595
0.367452
0.315614
0.236322
0.202287
0.272699
0.274827
0.495196
0.230305
0.540093
0.258466
0.529806
0.282509
0.469629
0.248841
0.427188
0.265320
0.352173
0.331302
0.301617
0.384534
0.275783
0.414560
0.456358
0.453243
0.540265
0.487885
0.520259
0.587767
0.530369
0.588775
0.339689
0.545852
0.153169
0.381383
0.170921
0.429478
0.218461
0.485141
0.180244
0.536520
0.398998
0.465085
3.645865
2.244396
0.659225
0.298355
0.471397
0.264367
0.457294
0.300658
0.384646
0.357370
0.317805
0.423214
0.280264
0.452920
0.276325
0.557158
0.300161
0.560560
0.373291
0.465813
0.487703
0.359681
0.359952
0.312907
0.235265
0.199375
0.275926
0.269076
0.498169
0.247437
0.544815
0.280748
0.538226
0.308681
0.483478
0.277073
0.443082
0.289854
0.370859
0.351556
0.325468
0.400684
0.299948
0.418854
0.496993
0.488251
0.574326
0.510804
0.535025
0.584293
0.527394
0.622817
0.404483
0.566375
0.186786
0.395075
0.181463
0.443721
0.245215
0.497767
0.212360
0.548364
0.415067
0.479181
3.647450
2.247044
0.668462
0.325201
0.489011
0.294502
0.475191
0.327027
0.405456
0.379547
0.342337
0.441504
0.306827
0.466968
0.301516
0.562910
0.307309
0.563705
0.357847
0.458930
0.477453
0.354246
0.352633
0.310449
0.234521
0.196916
0.279696
0.264122
0.500088
0.245953
0.550174
0.303127
0.547573
0.334940
0.498524
0.305542
0.460386
0.315417
0.391045
0.373262
0.350503
0.418441
0.325140
0.427091
0.535449
0.517628
0.587473
0.503717
0.481096
0.495109
0.414232
0.532155
0.316007
0.580298
0.225317
0.409826
0.194087
0.459244
0.272621
0.511900
0.244157
0.561687
0.432803
0.494866
3.649293
2.250101
0.678914
0.352694
0.507830
0.324607
0.494225
0.353891
0.427270
0.402616
0.367507
0.460838
0.333658
0.482144
0.326839
0.550379
0.282084
0.556566
0.340154
0.452958
0.467490
0.349260
0.345466
0.308219
0.234066
0.194882
0.283966
0.259942
0.502735
0.238498
0.542003
0.318935
0.557720
0.361090
0.514548
0.334003
0.478826
0.341610
0.412373
0.396034
0.376316
0.437459
0.350889
0.438401
0.570829
0.520718
0.574048
0.377716
0.310787
0.345309
0.189729
0.440443
0.192195
0.549827
0.255224
0.423257
0.207384
0.475803
0.300335
0.527321
0.275557
0.576292
0.451888
0.511883
3.651392
2.253561
0.686354
0.357228
0.507600
0.326896
0.499276
0.366004
0.441944
0.424123
0.392994
0.480927
0.360475
0.498257
0.304519
0.533225
0.257583
0.550685
0.323153
0.447887
0.457832
0.344719
0.338463
0.306209
0.233878
0.193253
0.288647
0.256522
0.506032
0.232727
0.533399
0.307531
0.550907
0.362606
0.522715
0.362216
0.498127
0.368109
0.434518
0.419531
0.402558
0.457387
0.376744
0.451828
0.600722
0.498402
0.530918
0.271390
0.242832
0.408876
0.260147
0.430590
0.112073
0.539218
0.270645
0.433216
0.220419
0.493147
0.328080
0.543810
0.306484
0.591982
0.472028
0.529985
3.650918
2.250268
0.670161
0.331565
0.490484
0.300129
0.482304
0.342578
0.422812
0.404274
0.379473
0.480576
0.364126
0.481581
0.282221
0.517297
0.233940
0.545993
0.306994
0.443697
0.448565
0.340641
0.331675
0.304419
0.233932
0.192011
0.293608
0.253832
0.509813
0.228552
0.525698
0.297899
0.540029
0.349037
0.508687
0.350263
0.496119
0.365143