# vtk DataFile Version 2.0
Comment goes here
ASCII
DATASET UNSTRUCTURED_GRID
POINTS 12111 float
-37.994946 20.401875 -23.199564 
-37.485788 20.572831 -23.272333 
-36.951560 20.751514 -23.353852 
-36.459210 20.908036 -23.425999 
-35.979061 21.045120 -23.485476 
-35.486934 21.159006 -23.529041 
-35.021853 21.240474 -23.557106 
-34.500946 21.317892 -23.582963 
-33.959926 21.397746 -23.607013 
-33.375058 21.412607 -23.541057 
-32.808402 21.451335 -23.467692 
-32.304179 21.479817 -23.428445 
-38.015012 20.779541 -22.519015 
-37.504042 20.946555 -22.598366 
-36.968504 21.122700 -22.686304 
-36.476406 21.276063 -22.765904 
-36.000556 21.407074 -22.834821 
-35.517970 21.511176 -22.890734 
-35.059267 21.583639 -22.932336 
-34.539534 21.654227 -22.972171 
-33.993791 21.731167 -23.007648 
-33.373774 21.762341 -22.982791 
-32.692550 21.826395 -22.905959 
-32.113107 21.877240 -22.892259 
-37.935762 20.883609 -21.751504 
-37.423257 21.049515 -21.838690 
-36.886590 21.225835 -21.933777 
-36.396782 21.378778 -22.021339 
-35.932983 21.506010 -22.100030 
-35.474791 21.602098 -22.168408 
-35.033050 21.668545 -22.224245 
-34.519807 21.736475 -22.279306 
-33.971713 21.814097 -22.327493 
-33.371365 21.904656 -22.353320 
-32.548418 22.036523 -22.310765 
-31.730020 22.167423 -22.228352 
-37.769260 20.698266 -21.013864 
-37.255737 20.866067 -21.108947 
-36.718284 21.045244 -21.210810 
-36.232498 21.200553 -21.305609 
-35.786754 21.326870 -21.392904 
-35.364145 21.417966 -21.471988 
-34.947227 21.482325 -21.540671 
-34.444700 21.551942 -21.609956 
-33.899288 21.632485 -21.669572 
-33.272264 21.732170 -21.708088 
-32.315612 21.897498 -21.697464 
-31.299594 22.106463 -21.821507 
-37.540850 20.251699 -20.418381 
-37.026978 20.424108 -20.520222 
-36.489196 20.608384 -20.627455 
-36.008564 20.768462 -20.727651 
-35.584213 20.896843 -20.821049 
-35.203086 20.986760 -20.907473 
-34.814986 21.053438 -20.985793 
-34.325148 21.129046 -21.066491 
-33.789262 21.213253 -21.134440 
-33.182506 21.305977 -21.173586 
-32.287362 21.426053 -21.144096 
-30.703841 21.683137 -21.216183 
-37.285311 19.611858 -20.055757 
-36.771812 19.790895 -20.162190 
-36.234210 19.981733 -20.272568 
-35.759055 20.148254 -20.375507 
-35.356189 20.281333 -20.471588 
-35.016250 20.374055 -20.560884 
-34.656636 20.447248 -20.644273 
-34.178965 20.532686 -20.732175 
-33.653206 20.622420 -20.805834 
-33.078609 20.704678 -20.844874 
-32.303445 20.759961 -20.798382 
-31.470050 20.898226 -20.693598 
-37.041548 18.876195 -19.981165 
-36.529095 19.062859 -20.089321 
-35.992143 19.260734 -20.200156 
-35.521932 19.434398 -20.302784 
-35.137323 19.574084 -20.397743 
-34.832012 19.673134 -20.485038 
-34.496377 19.756077 -20.568191 
-34.028454 19.853999 -20.658104 
-33.509339 19.951591 -20.734698 
-32.955593 20.028074 -20.777962 
-32.257591 20.036694 -20.741806 
-31.582671 20.106932 -20.592164 
-36.846666 18.156690 -20.205930 
-36.335781 18.350825 -20.312687 
-35.799856 18.555140 -20.421229 
-35.333265 18.735579 -20.520556 
-34.960815 18.882808 -20.610775 
-34.678217 18.990723 -20.691502 
-34.358488 19.085089 -20.769114 
-33.896782 19.196265 -20.855436 
-33.380021 19.303337 -20.931534 
-32.831792 19.381295 -20.982207 
-32.154923 19.372548 -20.980075 
-31.547719 19.368208 -20.825511 
-36.730334 17.562877 -20.695865 
-36.221294 17.763188 -20.798312 
-35.686615 17.972372 -20.902163 
-35.221766 18.158200 -20.995702 
-34.853468 18.312789 -21.078284 
-34.578089 18.430780 -21.148835 
-34.263794 18.536401 -21.216335 
-33.804243 18.659362 -21.293765 
-33.286082 18.776053 -21.365527 
-32.728219 18.863563 -21.424566 
-32.014566 18.873456 -21.472096 
-31.367027 18.836170 -21.367662 
-36.710276 17.185198 -21.376412 
-36.203075 17.389453 -21.472296 
-35.669683 17.601192 -21.569763 
-35.204448 17.790214 -21.655893 
-34.831646 17.950889 -21.729064 
-34.546825 18.078662 -21.787320 
-34.226624 18.193611 -21.841547 
-33.765248 18.324802 -21.905899 
-33.243268 18.449359 -21.969665 
-32.663747 18.553225 -22.035370 
-31.863289 18.617341 -22.136616 
-31.085409 18.613145 -22.098908 
-36.789531 17.081129 -22.143927 
-36.283880 17.286491 -22.231985 
-35.751616 17.498078 -22.322342 
-35.283950 17.687596 -22.400561 
-34.898730 17.852146 -22.463962 
-34.589236 17.987949 -22.509627 
-34.252619 18.108880 -22.549364 
-33.785949 18.243303 -22.598337 
-33.259756 18.372208 -22.651462 
-32.652940 18.496120 -22.719988 
-31.735281 18.640822 -22.865116 
-30.694851 18.657228 -22.734527 
-36.956021 17.266472 -22.881571 
-36.451388 17.469943 -22.961737 
-35.919930 17.678694 -23.045334 
-35.448192 17.865918 -23.116342 
-35.044599 18.031507 -23.171113 
-34.699022 18.172326 -23.205838 
-34.337840 18.295012 -23.232096 
-33.862937 18.427154 -23.265745 
-33.336175 18.554814 -23.306423 
-32.733209 18.687876 -23.364814 
-31.821960 18.878798 -23.495245 
-30.578786 18.895484 -23.226652 
-37.184411 17.713046 -23.477058 
-36.680116 17.911911 -23.550455 
-36.149007 18.115567 -23.628673 
-35.672183 18.298044 -23.694272 
-35.247125 18.461642 -23.742903 
-34.859638 18.603651 -23.770085 
-34.469421 18.723584 -23.786071 
-33.983903 18.848385 -23.806916 
-33.459194 18.969276 -23.835108 
-32.894481 19.096765 -23.870428 
-32.143316 19.282083 -23.924987 
-30.642638 19.369454 -23.608929 
-37.439943 18.352895 -23.839680 
-36.935247 18.545136 -23.908476 
-36.403977 18.742214 -23.983509 
-35.921810 18.918210 -24.046325 
-35.475481 19.077088 -24.092249 
-35.046722 19.216277 -24.116511 
-34.627469 19.329385 -24.127165 
-34.130134 19.443041 -24.139929 
-33.605283 19.562064 -24.089390 
-33.074839 19.676005 -24.086203 
-32.472374 19.816426 -24.063365 
-31.731801 19.847751 -24.013228 
-37.683706 19.088564 -23.914270 
-37.177942 19.273175 -23.981329 
-36.646025 19.463192 -24.055868 
-36.159051 19.631975 -24.118943 
-35.694828 19.784146 -24.165988 
-35.231739 19.916981 -24.192386 
-34.788016 20.020332 -24.203532 
-34.279549 20.120935 -24.214420 
-33.745689 20.206811 -24.147997 
-33.230511 20.305028 -24.124502 
-32.707446 20.424666 -24.039608 
-32.160580 20.412322 -24.018585 
-37.878596 19.808067 -23.689502 
-37.371271 19.985203 -23.757955 
-36.838308 20.168759 -23.834770 
-36.347764 20.330699 -23.901114 
-35.871691 20.475217 -23.952918 
-35.386382 20.599173 -23.986116 
-34.926555 20.691426 -24.003435 
-34.409703 20.779283 -24.018993 
-33.863638 20.836508 -23.971108 
-33.331099 20.904778 -23.940605 
-32.810545 20.962728 -23.854737 
-31.862412 21.538661 -23.525283 
-31.454376 21.641339 -23.712741 
-30.977181 21.757032 -23.924005 
-30.470576 21.934222 -24.151897 
-29.982638 22.178269 -24.399143 
-29.375012 22.371759 -24.602419 
-28.863308 22.532031 -24.723475 
-28.412920 22.655098 -24.797574 
-27.844505 22.761689 -24.876849 
-27.307219 22.820680 -24.943164 
-26.745901 22.861712 -25.001432 
-26.185502 22.884648 -25.046336 
-25.626956 22.891032 -25.076256 
-25.078679 22.886080 -25.088151 
-24.550852 22.882712 -25.059237 
-24.048834 22.899556 -24.950796 
-23.574459 22.946037 -24.768309 
-23.069347 23.031389 -24.527364 
-22.515534 23.103219 -24.295910 
-21.922754 23.084128 -24.147661 
-21.333487 23.000747 -24.046529 
-20.782847 22.892769 -23.963705 
-20.235953 22.789521 -23.894845 
-19.687280 22.684764 -23.822322 
-19.142517 22.563326 -23.731398 
-18.596786 22.456258 -23.649416 
-18.041387 22.390626 -23.601872 
-17.478656 22.367509 -23.591841 
-16.916179 22.330842 -23.571529 
-16.356940 22.278287 -23.538655 
-15.796295 22.299239 -23.571122 
-15.244965 22.390146 -23.671510 
-14.700431 22.495934 -23.799116 
-14.148830 22.559353 -23.907715 
-13.589405 22.592635 -24.002509 
-13.034683 22.620724 -24.096084 
-12.482643 22.645858 -24.184426 
-11.922949 22.672543 -24.269739 
-11.369375 22.704684 -24.353882 
-10.802592 22.742864 -24.440755 
-10.210842 22.781462 -24.538555 
-9.593140 22.786804 -24.688362 
-9.046454 22.630326 -24.957903 
-8.648245 22.379540 -25.271268 
-8.302319 22.289121 -25.483661 
-7.803663 22.201141 -25.743850 
-7.250901 22.080674 -26.017554 
-6.691274 21.940911 -26.293034 
-6.191103 21.798837 -26.539222 
-5.626985 21.598900 -27.031425 
-31.675618 21.940235 -23.012456 
-31.285572 22.046521 -23.198361 
-30.859056 22.171461 -23.413683 
-30.385222 22.316960 -23.643082 
-29.915162 22.534711 -23.873817 
-29.332877 22.711415 -24.084237 
-28.829286 22.864393 -24.211505 
-28.378715 22.984489 -24.291259 
-27.809750 23.086881 -24.377980 
-27.273541 23.140861 -24.451763 
-26.714490 23.176009 -24.518377 
-26.157391 23.192400 -24.572670 
-25.606755 23.191621 -24.613170 
-25.079623 23.179077 -24.636438 
-24.594522 23.163394 -24.625715 
-24.162665 23.155497 -24.553157 
-23.755274 23.172706 -24.412049 
-23.255056 23.242891 -24.189628 
-22.636652 23.315460 -23.949605 
-21.978371 23.293840 -23.794628 
-21.349417 23.204537 -23.695528 
-20.789011 23.091601 -23.619847 
-20.242664 22.987721 -23.552663 
-19.695438 22.882505 -23.481490 
-19.151550 22.755686 -23.400349 
-18.605294 22.645031 -23.324281 
-18.047735 22.583553 -23.268388 
-17.481463 22.571360 -23.237940 
-16.914697 22.537525 -23.212155 
-16.350017 22.478371 -23.191009 
-15.780797 22.505267 -23.212803 
-15.216464 22.614865 -23.281316 
-14.656710 22.739851 -23.378597 
-14.094055 22.809852 -23.480399 
-13.529380 22.840590 -23.583397 
-12.974378 22.863723 -23.686865 
-12.425326 22.882446 -23.785606 
-11.870665 22.902751 -23.880038 
-11.322659 22.930389 -23.969552 
-10.760900 22.966194 -24.058119 
-10.161004 23.002367 -24.158870 
-9.448696 22.991950 -24.341975 
-8.754583 22.803315 -24.678183 
-8.375432 22.546788 -24.998744 
-8.083544 22.474701 -25.179946 
-7.622552 22.419016 -25.422423 
-7.057292 22.330577 -25.722617 
-6.457171 22.219655 -26.049753 
-5.881682 22.073940 -26.364386 
-5.377664 21.894590 -26.890821 
-31.310159 22.198748 -22.453340 
-30.947854 22.256843 -22.666716 
-30.611996 22.439760 -22.846008 
-30.187613 22.551957 -23.084636 
-29.759184 22.672050 -23.299374 
-29.225513 22.831317 -23.507966 
-28.742349 22.977157 -23.637249 
-28.297827 23.095272 -23.721261 
-27.734617 23.195696 -23.814956 
[...]
POINT_DATA 12111
SCALARS sample_scalars float 1
LOOKUP_TABLE my_table
0.370730
0.114494
0.122695
0.229743
0.254462
0.267792
0.193950
0.106255
0.132797
0.236456
0.089399
0.304327
0.403417
0.349473
0.392746
0.444902
0.456325
0.425648
0.363345
0.293424
0.176657
0.152703
0.091408
0.082769
0.663096
0.631571
0.662108
0.702529
0.716223
0.666954
0.605630
0.537918
0.501961
0.431774
0.429743
0.373147
0.680879
0.706503
0.774880
0.832253
0.842532
0.802285
0.740925
0.660947
0.605930
0.583919
0.535200
0.467964
0.624944
0.618890
0.699940
0.776351
0.786938
0.748952
0.695767
0.648034
0.629112
0.599154
0.450668
0.301106
0.470404
0.466908
0.547251
0.591523
0.600686
0.583733
0.560086
0.517992
0.515581
0.438223
0.254436
0.223428
0.303425
0.253072
0.305461
0.367952
0.388295
0.418791
0.363866
0.376106
0.374350
0.163608
0.189729
0.144547
0.247730
0.088919
0.118097
0.094532
0.187045
0.176560
0.164326
0.194048
0.257175
0.119044
0.301900
0.336728
0.389907
0.100517
0.226954
0.248090
0.210755
0.157196
0.077659
0.054416
0.140343
0.185909
0.281217
0.286731
0.660171
0.329628
0.139408
0.187970
0.243460
0.217028
0.170388
0.080419
0.200811
0.130543
0.150237
0.185274
0.888966
0.575233
0.307296
0.129871
0.214394
0.075354
0.165104
0.166957
0.278190
0.244487
0.126497
0.138628
1.006865
0.691719
0.411517
0.202552
0.113334
0.109486
0.168791
0.228251
0.362836
0.399453
0.249980
0.176772
0.977295
0.670101
0.416488
0.196892
0.185180
0.189555
0.220431
0.233544
0.302157
0.319796
0.202306
0.130626
0.875680
0.564114
0.287196
0.165342
0.039584
0.116017
0.137567
0.108946
0.186490
0.055419
0.079193
0.126279
0.672514
0.371453
0.094805
0.126599
0.120612
0.102035
0.104687
0.153634
0.212776
0.119237
0.297604
0.421320
0.402221
0.093819
0.149568
0.160218
0.107959
0.171706
0.042327
0.143365
0.295105
0.108770
0.301957
0.341350
0.246497
0.120999
0.289861
0.164828
0.180846
0.234493
0.255965
0.184838
0.149895
0.113608
0.113228
0.150518
0.201234
0.236959
0.248877
0.160408
0.239993
0.287205
0.351100
0.318703
0.279937
0.253220
0.223757
0.152242
0.136601
0.219810
0.256854
0.251887
0.145028
0.177646
0.242910
0.257524
0.287632
0.216774
0.094262
0.075243
0.166818
0.091061
0.088147
0.067457
0.154404
0.098001
0.092079
0.247271
0.196232
0.180699
0.119469
0.103305
0.277332
0.123785
0.069902
0.190886
0.247506
0.170651
0.171831
0.164568
0.196969
0.189117
0.196294
0.218355
0.250634
0.237073
0.207794
0.219680
0.255001
0.218386
0.369152
0.449688
0.517992
0.506939
0.426785
0.384031
0.350198
0.247059
0.181547
0.199253
0.266609
0.238438
0.196494
0.174656
0.213135
0.252212
0.209012
0.213085
0.110828
0.090641
0.093343
0.124007
0.165909
0.141923
0.111588
0.142414
0.214003
0.138870
0.188102
0.056979
0.178231
0.164236
0.135251
0.310510
0.223936
0.252401
0.203038
0.141847
0.193209
0.189578
0.223244
0.237155
0.248113
0.265503
0.224985
0.253056
0.198776
0.201244
0.203297
0.242370
0.395291
0.539849
0.607143
0.584134
0.532062
0.477808
0.398420
0.295643
0.270656
0.184929
0.221619
0.233184
0.152049
0.171017
0.153156
0.167619
0.236585
0.166579
0.099048
0.163863
0.082746
0.031570
0.119476
0.107224
0.189053
0.157171
0.299724
0.332635
0.280322
0.285108
0.205825
0.212909
0.080772
0.366798
0.292668
0.334801
0.321445
0.262838
0.321089
0.269403
0.370572
0.315272
0.313804
0.318006
0.313191
0.271463
0.210130
0.200433
0.234009
0.286691
0.400234
0.551064
0.622899
0.601813
0.530744
0.478133
0.400484
0.329052
0.257527
0.172706
0.270200
0.131906
0.083771
0.131018
0.121359
0.044309
0.123561
0.187939
0.107857
0.134873
0.080279
0.115719
0.122432
0.113986
0.147220
0.111566
0.404625
0.443232
0.409365
0.352844
0.259883
0.205047
0.170086
0.317224
0.256512
0.280075
0.311629
0.268817
0.228758
0.235888
0.259968
0.266271
0.264443
0.274493
0.287959
0.192283
0.158090
0.224015
0.212950
0.143031
0.307964
0.501552
0.589532
0.547398
0.474779
0.411333
0.361824
0.259493
0.178007
0.091841
0.146427
0.084851
0.170449
0.168292
0.218066
0.161452
0.259856
0.202798
0.171629
0.126896
0.075395
0.053207
0.167623
0.116242
0.105536
0.250225
0.475726
0.536953
0.500274
0.469787
0.383654
0.310969
0.315736
0.067205
0.075169
0.091444
0.137632
0.104586
0.113588
0.111648
0.168751
0.210485
0.191409
0.193987
0.198578
0.187919
0.158916
0.097919
0.132382
0.095777
0.218110
0.411247
0.490648
0.439129
0.377261
0.304311
0.259640
0.147139
0.128590
0.093502
0.155010
0.216102
0.312113
0.345343
0.333606
0.306388
0.234958
0.202532
0.166049
0.163715
0.162165
0.134982
0.106525
0.125103
0.104973
0.362447
0.669845
0.723393
0.686144
0.621491
0.555658
0.493779
0.576761
0.245898
0.099406
0.105810
0.211529
0.185576
0.223458
0.135886
0.209367
0.179983
0.132315
0.088256
0.114766
0.105024
0.103229
0.110734
0.081141
0.114148
0.166695
0.285259
0.337572
0.282535
0.246253
0.277726
0.137834
0.219739
0.198330
0.255779
0.303407
0.401061
0.542184
0.557183
0.532669
0.420676
0.335410
0.252343
0.224170
0.194938
0.154658
0.126872
0.122206
0.213748
0.188636
0.375704
0.638470
0.670465
0.652766
0.629288
0.597528
0.570497
0.615931
0.170486
0.264053
0.311635
0.347717
0.345237
0.330104
0.307565
0.181109
0.202168
0.171271
0.187072
0.113305
0.044886
0.046304
0.038948
0.066133
0.137566
0.137489
0.164963
0.190701
0.140729
0.130604
0.149860
0.166486
0.220376
0.292121
0.263075
0.288752
0.320562
0.405146
0.427029
0.393284
0.311095
0.249072
0.211766
0.168926
0.151781
0.165773
0.188662
0.105333
0.110181
0.171735
0.338261
0.512174
0.504980
0.481375
0.494870
0.474902
0.521729
0.532315
0.231388
0.319226
0.391320
0.374666
0.365049
0.329112
0.309116
0.265853
0.164790
0.174199
0.053446
0.153319
0.128161
0.203629
0.156671
0.129823
0.167455
0.114354
0.144386
0.115014
0.249185
0.232369
0.102023
0.206133
0.245548
0.172690
0.208995
0.153976
0.103520
0.222817
0.255865
0.150500
0.096087
0.021726
0.144812
0.098951
0.065031
0.105421
0.180774
0.108265
0.215602
0.189162
0.329930
0.298940
0.287142
0.193318
0.181646
0.248952
0.257951
0.263870
0.171761
0.246138
0.242650
0.221245
0.230092
0.257109
0.157521
0.148340
0.095187
0.072822
0.144213
0.202221
0.212065
0.190482
0.198387
0.176264
0.143728
0.163557
0.084892
0.145047
0.167449
0.138235
0.171740
0.156386
0.122237
0.134433
0.155530
0.155145
0.173636
0.170077
0.138403
0.129965
0.177958
0.247681
0.258913
0.129025
0.136426
0.139985
0.162806
0.101337
0.178336
0.189843
0.205027
0.154682
0.105619
0.068889
0.085424
0.212925
0.089887
0.131578
0.137069
0.161687
0.147739
0.115351
0.085134
0.109809
0.152881
0.171526
0.191594
0.185559
0.292041
0.183473
0.257861
0.259886
0.227033
0.196091
0.145335
0.123492
0.221372
0.195047
0.188910
0.184014
0.149905
0.098330
0.078928
0.052109
0.158400
0.252784
0.301211
0.268267
0.193512
0.234263
0.268262
0.324036
0.262479
0.142150
0.045294
0.169081
0.202287
0.172801
0.222813
0.200108
0.186395
0.090670
0.204997
0.262479
0.288068
0.295599
0.292289
0.270220
0.115707
0.110573
0.232823
0.252912
0.323299
0.443468
0.382194
0.319596
0.284709
0.270866
0.253569
0.316535
0.253164
0.263344
0.216813
0.185114
0.169622
0.185448
0.303425
0.311270
0.303269
0.298221
0.231648
0.120954
0.085805
0.183194
0.286997
0.393339
0.411639
0.398479
0.344951
0.338788
0.375873
0.363389
0.298546
0.202614
0.131044
0.128371
0.178315
0.227564
0.237133
0.232202
0.143096
0.157582
0.251907
0.366342
0.418483
0.450422
0.426412
0.355616
0.153653
0.239594
0.309832
0.464605
0.516807
0.480701
0.399947
0.369449
0.287011
0.256668
0.225275
0.214876
0.214283
0.227847
0.228206
0.199459
0.232834
0.380932
0.477345
0.505452
0.475416
0.375499
0.282690
0.144745
0.110676
0.217818
0.319832
0.419625
0.472781
0.418825
0.414577
0.456452
0.454788
0.407078
0.370047
0.268302
0.193353
0.148980
0.130303
0.232483
0.268385
0.304144
0.230289
0.111016
0.273408
0.360905
0.434751
0.455426
0.483911
0.423347
0.095158
0.124127
0.213686
0.305681
0.382701
0.380349
0.353376
0.305006
0.250956
0.245280
0.248116
0.256099
0.215199
0.189582
0.167380
0.080685
0.274399
0.474788
0.584102
0.595218
0.532145
0.435836
0.341782
0.222307
0.121017
0.159914
0.265118
0.367027
0.445387
0.413755
0.421716
0.483374
0.486830
0.436421
0.420945
0.260684
0.200606
0.167560
0.173451
0.214278
0.278402
0.336337
0.286457
0.114362
0.221957
0.318309
0.413306
0.391206
0.404003
0.501079
0.338578
0.204056
0.040499
0.103148
0.181223
0.230780
0.267854
0.224088
0.263749
0.246543
0.185027
0.143555
0.110785
0.140755
0.199708
0.180565
0.288568
0.378719
0.436329
0.439977
0.424512
0.363937
0.338853
0.234878
0.195706
0.182498
0.169127
0.269597
0.366517
0.325594
0.383719
0.423757
0.468026
0.412400
0.330299
0.233103
0.122568
0.062923
0.130192
0.188148
0.265265
0.234070
0.158222
0.234260
0.243701
0.393744
0.338894
0.355000
0.336341
0.471752
0.517848
0.575597
0.425542
0.183738
0.215959
0.156179
0.137223
0.127928
0.122820
0.166775
0.139667
0.123401
0.139004
0.139280
0.101762
0.127954
0.131189
0.109551
0.152542
0.221972
0.173555
0.148203
0.110000
0.121709
0.140876
0.149403
0.145200
0.042405
0.160571
0.243712
0.250298
0.225353
0.338230
0.374927
0.310390
0.291819
0.204214
0.131390
0.118225
0.178543
0.236935
0.264956
0.244612
0.088877
0.167655
0.299302
0.333755
0.353305
0.263955
0.185477
0.268885
0.219784
0.298296
0.246443
0.186287
0.206809
0.134707
0.129379
0.144406
0.180492
0.099966
0.083935
0.172584
0.112241
0.057879
0.137733
0.174807
0.161133
0.162173
0.161524
0.187998
0.235500
0.093027
0.130286
0.165968
0.106082
0.136524
0.146123
0.194852
0.149139
0.059451
0.175640
0.105070
0.058680
0.103961
0.160451
0.121173
0.145926
0.167852
0.207998
0.173077
0.155877
0.262118
0.237010
0.225385
0.243236
0.175542
0.163884
0.178255
0.190865
0.134482
0.038953
0.133059
0.124899
0.012528
0.143421
0.177727
0.136031
0.115765
0.096117
0.124939
0.191529
0.112116
0.072763
0.185068
0.108302
0.106693
0.061221
0.070501
0.157885
0.054796
0.048631
0.131167
0.100220
0.079069
0.086526
0.111990
0.103369
0.080894
0.264152
0.150011
0.136195
0.263680
0.240931
0.217072
0.246287
0.199534
0.200716
0.210697
0.221267
0.172096
0.066071
0.088052
0.154925
0.050632
0.115969
0.178610
0.136619
0.122772
0.084009
0.103488
0.156031
0.132151
0.071754
0.147461
0.101583
0.063692
0.127031
0.121206
0.069704
0.136059
0.116245
0.047090
0.167676
0.147263
0.056236
0.083610
0.158401
0.155135
0.262007
0.222696
0.331101
0.269217
0.234148
0.211555
0.245520
0.202755
0.210532
0.230583
0.219886
0.143495
0.101613
0.118546
0.186187
0.093027
0.111911
0.182999
0.155324
0.135602
0.134931
0.174014
0.168014
0.149425
0.102369
0.131685
0.095024
0.163217
0.163711
0.138751
0.067771
0.202534
0.116956
0.040664
0.033413
0.086258
0.120427
0.092147
0.160075
0.082294
0.246897
0.151412
0.411051
0.318952
0.247352
0.222217
0.200594
0.211591
0.211301
0.221635
0.239534
0.155374
0.126910
0.133892
0.207957
0.134919
0.150293
0.148208
0.156856
0.156298
0.117724
0.158706
0.151807
0.152081
0.118052
0.147537
0.087456
0.162990
0.248489
0.211913
0.122933
0.174069
0.142866
0.105407
0.084272
0.109000
0.095802
0.024289
0.107668
0.097708
0.245114
0.160375
0.431066
0.319440
0.237828
0.181163
0.139436
0.177429
0.190118
0.237712
0.244155
0.207103
0.156668
0.177929
0.210375
0.213047
0.145084
0.148181
0.172065
0.116035
0.084426
0.110574
0.176104
0.141995
0.209992
0.196777
0.149439
0.177536
0.292213
0.218597
0.167867
0.125509
0.087081
0.156606
0.107972
0.110444
0.141175
0.029467
0.093207
0.086619
0.233145
0.152773
0.417039
0.323759
0.192049
0.186640
0.144469
0.143356
0.214456
0.270629
0.250058
0.180734
0.127508
0.138668
0.250413
0.218661
0.114540
0.134205
0.176856
0.113062
0.143211
0.139804
0.148447
0.104861
0.193528
0.276874
0.197917
0.097570
0.304354
0.243795
0.223913
0.144193
0.060580
0.116255
0.168165
0.152719
0.025335
0.048346
0.114604
0.141669
0.197825
0.115915
0.284273
0.242758
0.154748
0.171588
0.149774
0.091857
0.177136
0.237920
0.226888
0.180934
0.158803
0.126675
0.248142
0.190408
0.126857
0.151277
0.139122
0.090355
0.093131
0.158651
0.112589
0.068166
0.207023
0.252388
0.241387
0.169361
0.291627
0.250441
0.193209
0.069646
0.070917
0.178771
0.118887
0.074725
0.070444
0.093874
0.146782
0.060863
0.184090
0.258345
0.198168
0.190226
0.133745
0.162823
0.126430
0.035941
0.124224
0.223616
0.174325
0.129074
0.192827
0.106400
0.170396
0.133282
0.138787
0.190689
0.147732
0.052390
0.115922
0.177619
0.075200
0.123040
0.221313
0.188465
0.176403
0.114437
0.259304
0.246402
0.139531
0.066512
0.134732
0.093289
0.056501
0.065362
0.128539
0.169001
0.045304
0.143826
0.191375
0.205412
0.239904
0.231419
0.128862
0.159119
0.123202
0.054127
0.104945
0.182198
0.103343
0.104017
0.138044
0.087832
0.122273
0.078232
0.136798
0.174191
0.113906
0.022975
0.086003
0.164156
0.062606
0.158079
0.135800
0.130110
0.119260
0.117033
0.203447
0.161609
0.071718
0.108333
0.097754
0.061445
0.156905
0.133072
0.053543
0.068211
0.062157
0.141062
0.156958
0.153588
0.285448
0.246971
0.176517
0.148556
0.111039
0.067431
0.097227
0.189894
0.065890
0.137793
0.093470
0.101319
0.120529
0.031013
0.127431
0.161821
0.097455
0.039273
0.133635
0.146732
0.050645
0.160015
0.118355
0.094873
0.103465
0.093311
0.133116
0.138835
0.059061
0.161270
0.107287
0.126263
0.104675
0.123542
0.114747
0.124507
0.062943
0.094312
0.137932
0.333733
0.365562
0.306001
0.208134
0.157728
0.107462
0.053405
0.125846
0.208281
0.132113
0.194113
0.115746
0.105579
0.163349
0.105168
0.129722
0.147990
0.126826
0.073739
0.143163
0.127642
0.067890
0.192033
0.062486
0.112794
0.132446
0.045085
0.051238
0.028248
0.113532
0.083737
0.076075
0.156711
0.054947
0.103739
0.187922
0.181736
0.146059
0.051878
0.123293
0.420149
0.398544
0.333315
0.235868
0.124780
0.076459
0.101430
0.175364
0.234936
0.209326
0.259346
0.081592
0.071786
0.134900
0.117027
0.065054
0.142396
0.117644
0.127425
0.205921
0.149670
0.107727
0.154582
0.098337
0.073831
0.095225
0.106211
0.054343
0.112036
0.173079
0.063665
0.167117
0.089315
0.081609
0.112200
0.179981
0.173965
0.158704
0.092052
0.136906
0.478656
0.418124
0.354005
0.249443
0.146807
0.092363
0.110332
0.165149
0.260368
0.284741
0.282644
0.110628
0.078791
0.179150
0.164484
0.104148
0.116960
0.172120
0.197125
0.249256
0.199317
0.150388
0.116319
0.125485
0.132583
0.128427
0.127816
0.142906
0.163032
0.097018
0.182815
0.065474
0.123504
0.145179
0.140423
0.198958
0.177764
0.105963
0.088206
0.106015
0.536207
0.473662
0.391105
0.288893
0.176157
0.184669
0.059096
0.131444
0.256571
0.313459
0.267002
0.166444
0.102577
0.160646
0.148597
0.181734
0.107671
0.154953
0.232094
0.281519
0.259411
0.162649
0.134664
0.147271
0.111195
0.071253
0.252897
0.250960
0.225138
0.143782
0.152088
0.038413
0.104806
0.165152
0.148101
0.151578
0.153363
0.096234
0.158176
0.086498
0.371017
0.458931
0.363638
0.368544
0.286007
0.187780
0.191127
0.079487
0.105430
0.194354
0.226146
0.214882
0.137202
0.158695
0.176499
0.131508
0.169179
0.144405
0.180407
0.253354
0.295829
0.288097
0.188979
0.105866
0.180962
0.160609
0.064627
0.229943
0.331703
0.231081
0.123519
0.177592
0.094197
0.076587
0.153031
0.172118
0.165201
0.141474
0.077725
0.110673
0.447227
0.388780
0.347381
0.295138
0.259178
0.240415
0.190613
0.132525
0.070462
0.074581
0.083249
0.049284
0.152455
0.153420
0.054260
0.166936
0.199154
0.200216
0.184651
0.221216
0.249188
0.203632
0.144482
0.185363
0.123675
0.167367
0.167630
0.189699
0.246786
0.175531
0.265564
0.216394
0.185693
0.217680
0.267742
0.204111
0.201275
0.141316
0.177599
0.057810
0.114957
0.219620
0.205717
0.238451
0.244103
0.297978
0.253117
0.232353
0.252851
0.244160
0.270648
0.265375
0.278449
0.293126
0.344162
0.343546
0.331120
0.353422
0.356344
0.353667
0.388410
0.332331
0.316469
0.292812
0.266691
0.253653
0.245704
0.243733
0.259464
0.234035
0.212307
0.211029
0.188218
0.164271
0.164615
0.144788
0.192942
0.140026
0.115685
0.138685
0.090431
0.143904
0.094994
0.073953
0.091008
0.211846
0.342157
0.566601
0.829178
0.941297
0.856104
0.745782
0.595126
0.492602
0.378369
0.303801
0.162304
0.043722
0.125425
0.201796
0.246752
0.277550
0.333230
0.323743
0.351862
0.314240
0.297688
0.281142
0.150100
0.211535
0.109583
0.088291
0.203175
0.158189
0.179822
0.195785
0.166573
0.199426
0.087629
0.137942
0.105575
0.078286
0.159622
0.220470
0.298467
0.370458
0.431867
0.486546
0.523333
0.499082
0.410510
0.384052
0.300671
0.217911
0.180913
0.135845
0.207631
0.214455
0.245183
0.208438
0.240291
0.079951
0.120957
0.239061
0.415884
0.605867
0.617160
0.507755
0.338980
0.218929
0.121776
0.152352
0.112499
0.082256
0.181752
0.061646
0.115782
0.129316
0.178309
0.236153
0.287944
0.382024
0.471429
0.550807
0.545595
0.479356
0.386586
0.292103
0.246134
0.213017
0.167054
0.141721
0.066816
0.084073
0.098623
0.184298
0.105961
0.165622
0.092445
0.054028
0.094211
0.127431
0.118476
0.063810
0.086505
0.062942
0.091955
0.097016
0.089695
0.180349
0.219040
0.210521
0.240363
0.286799
0.327906
0.332709
0.282478
0.257894
0.190834
0.193110
0.145882
0.186636
0.156032
0.098887
0.089176
0.041490
0.038703
0.080241
0.143701
0.193013
0.217978
0.187279
0.169469
0.132688
0.168980
0.169278
0.228691
0.209251
0.189801
0.098343
0.051506
0.141297
0.205068
0.266958
0.344756
0.401645
0.421808
0.389624
0.319545
0.170995
0.156376
0.245832
0.126587
0.193226
0.239269
0.309976
0.306718
0.208749
0.203719
0.260309
0.365025
0.303623
0.220522
0.203405
0.178070
0.162896
0.184015
0.155812
0.065069
0.118794
0.075687
0.106317
0.044176
0.115517
0.119195
0.107642
0.204658
0.202887
0.259505
0.224985
0.231341
0.204027
0.135526
0.137864
0.128817
0.097849
0.117402
0.024891
0.080380
0.149680
0.082949
0.116705
0.046771
0.153169
0.159799
0.243450
0.172208
0.128833
0.073537
0.114005
0.154419
0.236326
0.214974
0.254948
0.246667
0.241577
0.233397
0.193152
0.183540
0.221983
0.196660
0.221239
0.199334
0.228632
0.272690
0.237551
0.230089
0.254129
0.242259
0.190416
0.177150
0.137348
0.161320
0.143228
0.087394
0.095583
0.119790
0.103180
0.070752
0.077018
0.144921
0.052379
0.079802
0.071584
0.122938
0.112393
0.156144
0.147069
0.018948
0.109682
0.089906
0.178149
0.115617
0.182688
0.146645
0.139896
0.357254
0.505527
0.682764
0.754494
0.703562
0.622171
0.465635
0.380697
0.267888
0.239605
0.227177
0.163812
0.169480
0.210286
0.242735
0.259699
0.280582
0.272945
0.285378
0.203673
0.187178
0.106058
0.158337
0.193097
0.233565
0.263138
0.233244
0.125598
0.118810
0.063409
0.090796
0.123792
0.208923
0.143693
0.138909
0.096998
0.184465
0.176438
0.267399
0.288802
0.339434
0.362959
0.380717
0.368782
0.282023
0.219188
0.193668
0.200702
0.113517
0.183764
0.157602
0.198040
0.189352
0.155720
0.141898
0.169730
0.272369
0.416809
0.580493
0.760625
0.809240
0.667234
0.492130
0.371406
0.278446
0.220300
0.133593
0.070872
0.109952
0.075083
0.157770
0.101293
0.123722
0.166916
0.250432
0.293162
0.353731
0.422429
0.406045
0.350213
0.290200
0.177818
0.138364
0.188463
0.181632
0.126207
0.060490
0.164191
0.153516
0.241110
0.183012
0.194132
0.165115
0.030766
0.130032
0.062751
0.070801
0.091463
0.060679
0.068667
0.052978
0.089304
0.028164
0.150829
0.218442
0.192054
0.156959
0.184022
0.192633
0.256778
0.183823
0.135860
0.103518
0.090423
0.104642
0.084996
0.177860
0.116597
0.080878
0.107277
0.180567
0.227549
0.284738
0.306233
0.311196
0.296931
0.242605
0.188805
0.144716
0.091188
0.136745
0.146217
0.170334
0.135598
0.095689
0.072736
0.138369
0.163261
0.257480
0.287325
0.332014
0.278782
0.215637
0.147098
0.188112
0.222147
0.138377
0.173544
0.135647
0.240522
0.226087
0.214801
0.162940
0.274333
0.341220
0.249226
0.247821
0.232761
0.242622
0.265225
0.287510
0.215096
0.173365
0.235482
0.138010
0.144101
0.110455
0.108071
0.100816
0.142607
0.246206
0.261209
0.288698
0.281174
0.261974
0.227042
0.138917
0.100288
0.108649
0.083600
0.172618
0.181032
0.182982
0.210573
0.275839
0.256864
0.210482
0.193562
0.141532
0.125706
0.127602
0.062691
0.127295
0.105536
0.144000
0.170685
0.195893
0.231482
0.198780
0.207581
0.184493
0.124407
0.183367
0.083847
0.103813
0.142648
0.138771
0.164891
0.183018
0.158562
0.110603
0.160797
0.113801
0.132142
0.209947
0.112666
0.105804
0.210204
0.164921
0.166033
0.214126
0.227924
0.261384
0.208670
0.178325
0.148765
0.132469
0.140164
0.173538
0.077053
0.048424
0.095830
0.077426
0.129743
0.048521
0.045948
0.121340
0.114330
0.147812
0.142736
0.202396
0.389627
0.521192
0.562012
0.478809
0.421599
0.280777
0.291511
0.158329
0.200330
0.199509
0.242877
0.134990
0.227066
0.191014
0.217197
0.241425