# vtk DataFile Version 2.0
Comment goes here
ASCII
DATASET UNSTRUCTURED_GRID
POINTS 18392 float
37.309375 -30.851380 49.910144
37.421550 -30.801682 50.012831
37.533724 -30.751985 50.115519
37.645899 -30.702287 50.218206
37.292495 -30.986577 49.994015
37.399989 -30.932680 50.087538
37.507482 -30.878782 50.181061
37.614976 -30.824885 50.274584
37.275615 -31.121775 50.077886
37.378428 -31.063678 50.162244
37.481240 -31.005580 50.246603
37.584052 -30.947483 50.330962
37.258736 -31.256973 50.161756
37.356867 -31.194676 50.236951
37.454998 -31.132378 50.312146
37.553129 -31.070081 50.387340
37.241856 -31.392171 50.245627
37.220373 -31.564241 50.352372
37.198889 -31.736311 50.459116
37.177406 -31.908380 50.565861
37.335306 -31.325673 50.311658
37.340934 -31.486422 50.443757
37.346562 -31.647170 50.575857
37.352191 -31.807918 50.707957
37.428756 -31.259176 50.377688
37.461029 -31.397879 50.526214
37.493301 -31.536581 50.674740
37.525574 -31.675284 50.823267
37.522206 -31.192678 50.443718
37.578739 -31.300085 50.598474
37.635272 -31.407492 50.753229
37.691804 -31.514898 50.907984
37.615656 -31.126181 50.509749
37.692227 -31.194881 50.659650
37.768797 -31.263582 50.809551
37.845367 -31.332282 50.959453
37.651261 -31.007783 50.462535
37.756451 -31.045478 50.624385
37.861642 -31.083172 50.786234
37.966833 -31.120867 50.948084
37.686865 -30.889385 50.415321
37.813345 -30.893118 50.577583
37.939824 -30.896851 50.739845
38.066304 -30.900584 50.902107
37.722469 -30.770988 50.368107
37.861749 -30.740254 50.519694
38.001030 -30.709520 50.671280
38.140310 -30.678786 50.822867
37.326255 -30.716182 49.826273
37.343134 -30.580984 49.742402
37.360014 -30.445786 49.658532
37.432090 -30.675567 49.928036
37.442630 -30.549452 49.843241
37.453170 -30.423336 49.758446
37.537925 -30.634952 50.029799
37.542126 -30.517919 49.944080
37.546326 -30.400887 49.858360
37.643760 -30.594337 50.131562
37.641621 -30.486387 50.044919
37.639483 -30.378437 49.958275
37.758073 -30.652590 50.320893
37.900841 -30.589338 50.451586
38.043609 -30.526087 50.582279
38.186377 -30.462836 50.712972
37.749595 -30.553722 50.233325
37.897062 -30.457416 50.344234
38.044529 -30.361111 50.455143
38.191996 -30.264805 50.566051
37.741117 -30.454854 50.145757
37.883395 -30.332052 50.229522
38.025673 -30.209250 50.313288
38.167951 -30.086448 50.397053
37.732639 -30.355987 50.058189
37.860112 -30.215214 50.109325
37.987585 -30.074441 50.160461
38.115057 -29.933667 50.211597
37.724161 -30.257119 49.970621
37.827857 -30.108554 49.985740
37.931554 -29.959989 50.000860
38.035250 -29.811424 50.015979
37.637344 -30.270487 49.871631
37.728887 -30.097477 49.852428
37.820431 -29.924467 49.833225
37.911974 -29.751457 49.814023
37.550527 -30.283854 49.772641
37.623242 -30.098638 49.720222
37.695956 -29.913422 49.667804
37.768671 -29.728206 49.615385
37.463711 -30.297221 49.673651
37.512488 -30.112369 49.591355
37.561265 -29.927517 49.509060
37.610042 -29.742665 49.426764
37.197200 -30.901077 49.807457
37.085026 -30.950775 49.704769
36.972851 -31.000472 49.602082
37.218761 -30.770079 49.732750
37.111268 -30.823977 49.639227
37.003774 -30.877874 49.545704
37.240322 -30.639082 49.658044
37.137510 -30.697179 49.573685
37.034697 -30.755276 49.489326
37.261883 -30.508084 49.583337
37.163752 -30.570381 49.508142
37.065620 -30.632679 49.432948
37.376894 -30.310588 49.574661
37.398377 -30.138519 49.467916
37.419861 -29.966449 49.361172
37.441344 -29.794379 49.254427
37.283444 -30.377086 49.508630
37.277816 -30.216338 49.376531
37.272187 -30.055589 49.244431
37.266559 -29.894841 49.112331
37.189994 -30.443583 49.442600
37.157721 -30.304881 49.294074
37.125449 -30.166178 49.145548
37.093176 -30.027475 48.997021
37.096544 -30.510081 49.376570
37.040011 -30.402674 49.221814
36.983478 -30.295268 49.067059
36.926945 -30.187861 48.912304
37.003094 -30.576578 49.310539
36.926523 -30.507878 49.160638
36.849953 -30.439178 49.010737
36.773382 -30.370477 48.860835
36.967489 -30.694976 49.357753
36.862298 -30.657281 49.195903
36.757108 -30.619587 49.034054
36.651917 -30.581892 48.872204
36.931885 -30.813374 49.404967
36.805405 -30.809641 49.242705
36.678925 -30.805908 49.080443
36.552446 -30.802176 48.918181
36.896281 -30.931772 49.452181
36.757000 -30.962505 49.300594
36.617720 -30.993239 49.149008
36.478440 -31.023973 48.997421
37.186660 -31.027192 49.892252
37.176120 -31.153308 49.977047
37.165579 -31.279423 50.061842
37.080825 -31.067807 49.790489
37.076624 -31.184840 49.876208
37.072423 -31.301873 49.961928
36.974990 -31.108422 49.688726
36.977128 -31.216372 49.775369
36.979267 -31.324323 49.862013
36.860676 -31.050169 49.499395
36.717909 -31.113421 49.368702
36.575141 -31.176672 49.238009
36.432373 -31.239923 49.107316
36.869155 -31.149037 49.586963
36.721688 -31.245343 49.476054
36.574221 -31.341648 49.365145
36.426754 -31.437954 49.254237
36.877633 -31.247905 49.674531
36.735355 -31.370707 49.590766
36.593077 -31.493509 49.507000
36.450799 -31.616311 49.423235
36.886111 -31.346772 49.762099
36.758638 -31.487545 49.710963
36.631165 -31.628319 49.659827
36.503692 -31.769092 49.608690
36.894589 -31.445640 49.849667
36.790893 -31.594205 49.834548
36.687196 -31.742770 49.819428
36.583500 -31.891335 49.804309
36.981406 -31.432273 49.948657
36.889862 -31.605282 49.967860
36.798319 -31.778292 49.987063
36.706776 -31.951302 50.006265
37.068223 -31.418905 50.047647
36.995508 -31.604121 50.100066
36.922794 -31.789337 50.152484
36.850079 -31.974553 50.204903
37.155039 -31.405538 50.146637
37.106262 -31.590390 50.228933
37.057485 -31.775242 50.311228
37.008708 -31.960094 50.393524
36.311684 -30.257070 50.702942
36.462255 -30.238799 50.768793
36.612825 -30.220529 50.834645
36.763396 -30.202259 50.900496
36.342178 -30.419602 50.746951
36.478755 -30.390683 50.811434
36.615332 -30.361764 50.875918
36.751909 -30.332845 50.940401
36.372673 -30.582135 50.790960
36.495256 -30.542567 50.854075
36.617839 -30.502999 50.917190
36.740422 -30.463431 50.980306
36.403167 -30.744667 50.834968
36.511756 -30.694450 50.896716
36.620345 -30.644233 50.958463
36.728935 -30.594017 51.020211
36.433661 -30.907200 50.878977
36.472472 -31.114059 50.934988
36.511282 -31.320918 50.990999
36.550093 -31.527778 51.047010
36.528257 -30.846334 50.939357
36.591525 -31.041103 51.021230
36.654793 -31.235872 51.103103
36.718061 -31.430642 51.184976
36.622852 -30.785468 50.999736
36.709849 -30.957655 51.099068
36.796846 -31.129842 51.198401
36.883843 -31.302029 51.297733
36.717448 -30.724603 51.060116
36.825629 -30.865156 51.167250
36.933810 -31.005709 51.274384
37.041992 -31.146262 51.381519
36.812043 -30.663737 51.120495
36.937133 -30.765404 51.224883
37.062223 -30.867071 51.329272
37.187313 -30.968737 51.433660
36.837524 -30.543800 51.081958
36.990978 -30.616184 51.197328
37.144433 -30.688568 51.312698
37.297887 -30.760952 51.428068
36.863005 -30.423863 51.043421
37.037655 -30.464067 51.158698
37.212306 -30.504272 51.273975
37.386956 -30.544476 51.389252
36.888486 -30.303925 51.004884
37.076108 -30.311451 51.109378
37.263730 -30.318976 51.213872
37.451352 -30.326501 51.318366
36.367867 -30.155087 50.590456
36.424049 -30.053105 50.477970
36.480232 -29.951123 50.365484
36.503182 -30.139162 50.662627
36.544109 -30.039524 50.556460
36.585036 -29.939887 50.450293
36.638497 -30.123236 50.734798
36.664168 -30.025944 50.634950
36.689839 -29.928651 50.535103
36.773812 -30.107311 50.806968
36.784227 -30.012363 50.713441
36.794643 -29.917415 50.619913
36.913966 -30.183988 50.966347
37.105602 -30.160735 51.050158
37.297237 -30.137482 51.133969
37.488872 -30.114229 51.217780
36.909127 -30.091385 50.879139
37.102978 -30.034765 50.945683
37.296830 -29.978145 51.012226
37.490682 -29.921524 51.078769
36.904287 -29.998782 50.791931
37.090958 -29.915204 50.833974
37.277630 -29.831626 50.876017
37.464302 -29.748047 50.918061
36.899447 -29.906180 50.704723
37.069856 -29.803977 50.716802
37.240265 -29.701775 50.728881
37.410675 -29.599573 50.740960
36.894607 -29.813577 50.617514
37.040338 -29.702703 50.596158
37.186068 -29.591830 50.574801
37.331799 -29.480957 50.553444
36.805059 -29.822468 50.526385
36.939881 -29.688703 50.471225
37.074702 -29.554939 50.416065
37.209524 -29.421174 50.360904
36.715511 -29.831359 50.435256
36.833281 -29.686672 50.347116
36.951051 -29.541986 50.258976
37.068822 -29.397299 50.170837
36.625963 -29.840250 50.344127
36.722064 -29.696935 50.225979
36.818165 -29.553621 50.107832
36.914266 -29.410306 49.989684
36.247790 -30.335890 50.568613
36.183897 -30.414711 50.434285
36.120003 -30.493531 50.299956
36.299252 -30.231484 50.472280
36.230638 -30.307880 50.354104
36.162024 -30.384276 50.235928
36.350714 -30.127077 50.375947
36.277380 -30.201048 50.273924
36.204045 -30.275020 50.171901
36.402176 -30.022670 50.279613
36.324121 -30.094217 50.193743
36.246065 -30.165764 50.107873
36.536415 -29.849141 50.252997
36.607920 -29.719345 50.109833
36.679425 -29.589549 49.966669
36.750930 -29.459754 49.823505
36.453638 -29.918263 50.183280
36.497731 -29.798493 50.016588
36.541824 -29.678724 49.849896
36.585917 -29.558954 49.683205
36.370862 -29.987386 50.113563
36.388271 -29.888134 49.931746
36.405681 -29.788882 49.749930
36.423090 -29.689631 49.568113
36.288086 -30.056508 50.043845
36.281356 -29.986826 49.856561
36.274626 -29.917144 49.669277
36.267896 -29.847462 49.481993
36.205310 -30.125631 49.974128
36.178717 -30.092771 49.791924
36.152123 -30.059911 49.609721
36.125530 -30.027051 49.427517
36.168010 -30.237311 50.022003
36.116007 -30.235798 49.826483
36.064004 -30.234285 49.630964
36.012001 -30.232772 49.435444
36.130710 -30.348991 50.069877
36.060465 -30.381722 49.872116
35.990221 -30.414453 49.674355
35.919976 -30.447184 49.476594
36.093409 -30.460672 50.117752
36.013148 -30.528146 49.928440
35.932887 -30.595620 49.739127
35.852626 -30.663094 49.549815
36.274826 -30.483005 50.621088
36.301861 -30.630119 50.673562
36.328897 -30.777233 50.726036
36.207473 -30.546407 50.495224
36.231050 -30.678103 50.556164
36.254627 -30.809799 50.617103
[...]
POINT_DATA 18392
SCALARS Preasures_At_Nodes float
LOOKUP_TABLE Ogranicenja
             1.00000000000000000000e+000
             2.00000000000000000000e+000
             3.00000000000000000000e+000
             4.00000000000000000000e+000
             5.00000000000000000000e+000
             6.00000000000000000000e+000
             7.00000000000000000000e+000
             8.00000000000000000000e+000
             9.00000000000000000000e+000
             1.00000000000000000000e+001
             1.10000000000000000000e+001
             1.20000000000000000000e+001
             1.30000000000000000000e+001
             1.40000000000000000000e+001
             1.50000000000000000000e+001
             1.60000000000000000000e+001
             1.70000000000000000000e+001
             1.80000000000000000000e+001
             1.90000000000000000000e+001
             2.00000000000000000000e+001
             2.10000000000000000000e+001
             2.20000000000000000000e+001
             2.30000000000000000000e+001
             2.40000000000000000000e+001
             2.50000000000000000000e+001
             2.60000000000000000000e+001
             2.70000000000000000000e+001
             2.80000000000000000000e+001
             2.90000000000000000000e+001
             3.00000000000000000000e+001
             3.10000000000000000000e+001
             3.20000000000000000000e+001
             3.30000000000000000000e+001
             3.40000000000000000000e+001
             3.50000000000000000000e+001
             3.60000000000000000000e+001
             3.70000000000000000000e+001
             3.80000000000000000000e+001
             3.90000000000000000000e+001
             4.00000000000000000000e+001
             4.10000000000000000000e+001
             4.20000000000000000000e+001
             4.30000000000000000000e+001
             4.40000000000000000000e+001
             4.50000000000000000000e+001
             4.60000000000000000000e+001
             4.70000000000000000000e+001
             4.80000000000000000000e+001
             4.90000000000000000000e+001
             5.00000000000000000000e+001
             5.10000000000000000000e+001
             5.20000000000000000000e+001
             5.30000000000000000000e+001
             5.40000000000000000000e+001
             5.50000000000000000000e+001
             5.60000000000000000000e+001
             5.70000000000000000000e+001
             5.80000000000000000000e+001
             5.90000000000000000000e+001
             6.00000000000000000000e+001
             6.10000000000000000000e+001
             6.20000000000000000000e+001
             6.30000000000000000000e+001
             6.40000000000000000000e+001
             6.50000000000000000000e+001
             6.60000000000000000000e+001
             6.70000000000000000000e+001
             6.80000000000000000000e+001
             6.90000000000000000000e+001
             7.00000000000000000000e+001
             7.10000000000000000000e+001
             7.20000000000000000000e+001
             7.30000000000000000000e+001
             7.40000000000000000000e+001
             7.50000000000000000000e+001
             7.60000000000000000000e+001
             7.70000000000000000000e+001
             7.80000000000000000000e+001
             7.90000000000000000000e+001
             8.00000000000000000000e+001
             8.10000000000000000000e+001
             8.20000000000000000000e+001
             8.30000000000000000000e+001
             8.40000000000000000000e+001
             8.50000000000000000000e+001
             8.60000000000000000000e+001
             8.70000000000000000000e+001
             8.80000000000000000000e+001
             8.90000000000000000000e+001
             9.00000000000000000000e+001
             9.10000000000000000000e+001
             9.20000000000000000000e+001
             9.30000000000000000000e+001
             9.40000000000000000000e+001
             9.50000000000000000000e+001
             9.60000000000000000000e+001
             9.70000000000000000000e+001
             9.80000000000000000000e+001
             9.90000000000000000000e+001
             1.00000000000000000000e+002
             1.01000000000000000000e+002
             1.02000000000000000000e+002
             1.03000000000000000000e+002
             1.04000000000000000000e+002
             1.05000000000000000000e+002
             1.06000000000000000000e+002
             1.07000000000000000000e+002
             1.08000000000000000000e+002
             1.09000000000000000000e+002
             1.10000000000000000000e+002
             1.11000000000000000000e+002
             1.12000000000000000000e+002
             1.13000000000000000000e+002
             1.14000000000000000000e+002
             1.15000000000000000000e+002
             1.16000000000000000000e+002
             1.17000000000000000000e+002
             1.18000000000000000000e+002
             1.19000000000000000000e+002
             1.20000000000000000000e+002
             1.21000000000000000000e+002
             1.22000000000000000000e+002
             1.23000000000000000000e+002
             1.24000000000000000000e+002
             1.25000000000000000000e+002
             1.26000000000000000000e+002
             1.27000000000000000000e+002
             1.28000000000000000000e+002
             1.29000000000000000000e+002
             1.30000000000000000000e+002
             1.31000000000000000000e+002
             1.32000000000000000000e+002
             1.33000000000000000000e+002
             1.34000000000000000000e+002
             1.35000000000000000000e+002
             1.36000000000000000000e+002
             1.37000000000000000000e+002
             1.38000000000000000000e+002
             1.39000000000000000000e+002
             1.40000000000000000000e+002
             1.41000000000000000000e+002
             1.42000000000000000000e+002
             1.43000000000000000000e+002
             1.44000000000000000000e+002
             1.45000000000000000000e+002
             1.46000000000000000000e+002
             1.47000000000000000000e+002
             1.48000000000000000000e+002
             1.49000000000000000000e+002
             1.50000000000000000000e+002
             1.51000000000000000000e+002
             1.52000000000000000000e+002
             1.53000000000000000000e+002
             1.54000000000000000000e+002
             1.55000000000000000000e+002
             1.56000000000000000000e+002
             1.57000000000000000000e+002
             1.58000000000000000000e+002
             1.59000000000000000000e+002
             1.60000000000000000000e+002
             1.61000000000000000000e+002
             1.62000000000000000000e+002
             1.63000000000000000000e+002
             1.64000000000000000000e+002
             1.65000000000000000000e+002
             1.66000000000000000000e+002
             1.67000000000000000000e+002
             1.68000000000000000000e+002
             1.69000000000000000000e+002
             1.70000000000000000000e+002
             1.71000000000000000000e+002
             1.72000000000000000000e+002
             1.73000000000000000000e+002
             1.74000000000000000000e+002
             1.75000000000000000000e+002
             1.76000000000000000000e+002
             1.77000000000000000000e+002
             1.78000000000000000000e+002
             1.79000000000000000000e+002
             1.80000000000000000000e+002
             1.81000000000000000000e+002
             1.82000000000000000000e+002
             1.83000000000000000000e+002
             1.84000000000000000000e+002
             1.85000000000000000000e+002
             1.86000000000000000000e+002
             1.87000000000000000000e+002
             1.88000000000000000000e+002
             1.89000000000000000000e+002
             1.90000000000000000000e+002
             1.91000000000000000000e+002
             1.92000000000000000000e+002
             1.93000000000000000000e+002
             1.94000000000000000000e+002
             1.95000000000000000000e+002
             1.96000000000000000000e+002
             1.97000000000000000000e+002
             1.98000000000000000000e+002
             1.99000000000000000000e+002
             2.00000000000000000000e+002
             2.01000000000000000000e+002
             2.02000000000000000000e+002
             2.03000000000000000000e+002
             2.04000000000000000000e+002
             2.05000000000000000000e+002
             2.06000000000000000000e+002
             2.07000000000000000000e+002
             2.08000000000000000000e+002
             2.09000000000000000000e+002
             2.10000000000000000000e+002
             2.11000000000000000000e+002
             2.12000000000000000000e+002
             2.13000000000000000000e+002
             2.14000000000000000000e+002
             2.15000000000000000000e+002
             2.16000000000000000000e+002
             2.17000000000000000000e+002
             2.18000000000000000000e+002
             2.19000000000000000000e+002
             2.20000000000000000000e+002
             2.21000000000000000000e+002
             2.22000000000000000000e+002
             2.23000000000000000000e+002
             2.24000000000000000000e+002
             2.25000000000000000000e+002
             2.26000000000000000000e+002
             2.27000000000000000000e+002
             2.28000000000000000000e+002
             2.29000000000000000000e+002
             2.30000000000000000000e+002
             2.31000000000000000000e+002
             2.32000000000000000000e+002
             2.33000000000000000000e+002
             2.34000000000000000000e+002
             2.35000000000000000000e+002
             2.36000000000000000000e+002
             2.37000000000000000000e+002
             2.38000000000000000000e+002
             2.39000000000000000000e+002
             2.40000000000000000000e+002
             2.41000000000000000000e+002
             2.42000000000000000000e+002
             2.43000000000000000000e+002
             2.44000000000000000000e+002
             2.45000000000000000000e+002
             2.46000000000000000000e+002
             2.47000000000000000000e+002
             2.48000000000000000000e+002
             2.49000000000000000000e+002
             2.50000000000000000000e+002
             2.51000000000000000000e+002
             2.52000000000000000000e+002
             2.53000000000000000000e+002
             2.54000000000000000000e+002
             2.55000000000000000000e+002
             2.56000000000000000000e+002
             2.57000000000000000000e+002
             2.58000000000000000000e+002
             2.59000000000000000000e+002
             2.60000000000000000000e+002
             2.61000000000000000000e+002
             2.62000000000000000000e+002
             2.63000000000000000000e+002
             2.64000000000000000000e+002
             2.65000000000000000000e+002
             2.66000000000000000000e+002
             2.67000000000000000000e+002
             2.68000000000000000000e+002
             2.69000000000000000000e+002
             2.70000000000000000000e+002
             2.71000000000000000000e+002
             2.72000000000000000000e+002
             2.73000000000000000000e+002
             2.74000000000000000000e+002
             2.75000000000000000000e+002
             2.76000000000000000000e+002
             2.77000000000000000000e+002
             2.78000000000000000000e+002
             2.79000000000000000000e+002
             2.80000000000000000000e+002
             2.81000000000000000000e+002
             2.82000000000000000000e+002
             2.83000000000000000000e+002
             2.84000000000000000000e+002
             2.85000000000000000000e+002
             2.86000000000000000000e+002
             2.87000000000000000000e+002
             2.88000000000000000000e+002
             2.89000000000000000000e+002
             2.90000000000000000000e+002
             2.91000000000000000000e+002
             2.92000000000000000000e+002
             2.93000000000000000000e+002
             2.94000000000000000000e+002
             2.95000000000000000000e+002
             2.96000000000000000000e+002
             2.97000000000000000000e+002
             2.98000000000000000000e+002
             2.99000000000000000000e+002
             3.00000000000000000000e+002
             3.01000000000000000000e+002
             3.02000000000000000000e+002
             3.03000000000000000000e+002
             3.04000000000000000000e+002
             3.05000000000000000000e+002
             3.06000000000000000000e+002
             3.07000000000000000000e+002
             3.08000000000000000000e+002
             3.09000000000000000000e+002
             3.10000000000000000000e+002
             3.11000000000000000000e+002
             3.12000000000000000000e+002
             3.13000000000000000000e+002
             3.14000000000000000000e+002
             3.15000000000000000000e+002
             3.16000000000000000000e+002
             3.17000000000000000000e+002
             3.18000000000000000000e+002
             3.19000000000000000000e+002
             3.20000000000000000000e+002
             3.21000000000000000000e+002
             3.22000000000000000000e+002
             3.23000000000000000000e+002
             3.24000000000000000000e+002
             3.25000000000000000000e+002
             3.26000000000000000000e+002
             3.27000000000000000000e+002
             3.28000000000000000000e+002
             3.29000000000000000000e+002
             3.30000000000000000000e+002
             3.31000000000000000000e+002
             3.32000000000000000000e+002
             3.33000000000000000000e+002
             3.34000000000000000000e+002
             3.35000000000000000000e+002
             3.36000000000000000000e+002
             3.37000000000000000000e+002
             3.38000000000000000000e+002
             3.39000000000000000000e+002
             3.40000000000000000000e+002
             3.41000000000000000000e+002
             3.42000000000000000000e+002
             3.43000000000000000000e+002
             3.44000000000000000000e+002
             3.45000000000000000000e+002
             3.46000000000000000000e+002
             3.47000000000000000000e+002
             3.48000000000000000000e+002
             3.49000000000000000000e+002
             3.50000000000000000000e+002
             3.51000000000000000000e+002
             3.52000000000000000000e+002
             3.53000000000000000000e+002
             3.54000000000000000000e+002
             3.55000000000000000000e+002
             3.56000000000000000000e+002
             3.57000000000000000000e+002
             3.58000000000000000000e+002
             3.59000000000000000000e+002
             3.60000000000000000000e+002
             3.61000000000000000000e+002
             3.62000000000000000000e+002
             3.63000000000000000000e+002
             3.64000000000000000000e+002
             3.65000000000000000000e+002
             3.66000000000000000000e+002
             3.67000000000000000000e+002
             3.68000000000000000000e+002
             3.69000000000000000000e+002
             3.70000000000000000000e+002
             3.71000000000000000000e+002
             3.72000000000000000000e+002
             3.73000000000000000000e+002
             3.74000000000000000000e+002
             3.75000000000000000000e+002
             3.76000000000000000000e+002
             3.77000000000000000000e+002
             3.78000000000000000000e+002
             3.79000000000000000000e+002
             3.80000000000000000000e+002
             3.81000000000000000000e+002
             3.82000000000000000000e+002
             3.83000000000000000000e+002
             3.84000000000000000000e+002
             3.85000000000000000000e+002
             3.86000000000000000000e+002
             3.87000000000000000000e+002
             3.88000000000000000000e+002
             3.89000000000000000000e+002
             3.90000000000000000000e+002
             3.91000000000000000000e+002
             3.92000000000000000000e+002
             3.93000000000000000000e+002
             3.94000000000000000000e+002
             3.95000000000000000000e+002
             3.96000000000000000000e+002
             3.97000000000000000000e+002
             3.98000000000000000000e+002
             3.99000000000000000000e+002
             4.00000000000000000000e+002
             4.01000000000000000000e+002
             4.02000000000000000000e+002
             4.03000000000000000000e+002
             4.04000000000000000000e+002
             4.05000000000000000000e+002
             4.06000000000000000000e+002
             4.07000000000000000000e+002
             4.08000000000000000000e+002
             4.09000000000000000000e+002
             4.10000000000000000000e+002
             4.11000000000000000000e+002
             4.12000000000000000000e+002
             4.13000000000000000000e+002
             4.14000000000000000000e+002
             4.15000000000000000000e+002
             4.16000000000000000000e+002
             4.17000000000000000000e+002
             4.18000000000000000000e+002
             4.19000000000000000000e+002
             4.20000000000000000000e+002
             4.21000000000000000000e+002
             4.22000000000000000000e+002
             4.23000000000000000000e+002
             4.24000000000000000000e+002
             4.25000000000000000000e+002
             4.26000000000000000000e+002
             4.27000000000000000000e+002
             4.28000000000000000000e+002
             4.29000000000000000000e+002
             4.30000000000000000000e+002
             4.31000000000000000000e+002
             4.32000000000000000000e+002
             4.33000000000000000000e+002
             4.34000000000000000000e+002
             4.35000000000000000000e+002
             4.36000000000000000000e+002
             4.37000000000000000000e+002
             4.38000000000000000000e+002
             4.39000000000000000000e+002
             4.40000000000000000000e+002
             4.41000000000000000000e+002
             4.42000000000000000000e+002
             4.43000000000000000000e+002
             4.44000000000000000000e+002
             4.45000000000000000000e+002
             4.46000000000000000000e+002
             4.47000000000000000000e+002
             4.48000000000000000000e+002
             4.49000000000000000000e+002
             4.50000000000000000000e+002
             4.51000000000000000000e+002
             4.52000000000000000000e+002
             4.53000000000000000000e+002
             4.54000000000000000000e+002
             4.55000000000000000000e+002
             4.56000000000000000000e+002
             4.57000000000000000000e+002
             4.58000000000000000000e+002
             4.59000000000000000000e+002
             4.60000000000000000000e+002
             4.61000000000000000000e+002
             4.62000000000000000000e+002
             4.63000000000000000000e+002
             4.64000000000000000000e+002
             4.65000000000000000000e+002
             4.66000000000000000000e+002
             4.67000000000000000000e+002
             4.68000000000000000000e+002
             4.69000000000000000000e+002
             4.70000000000000000000e+002
             4.71000000000000000000e+002
             4.72000000000000000000e+002
             4.73000000000000000000e+002
             4.74000000000000000000e+002
             4.75000000000000000000e+002
             4.76000000000000000000e+002
             4.77000000000000000000e+002
             4.78000000000000000000e+002
             4.79000000000000000000e+002
             4.80000000000000000000e+002
             4.81000000000000000000e+002
             4.82000000000000000000e+002
             4.83000000000000000000e+002
             4.84000000000000000000e+002
             4.85000000000000000000e+002